
     Program PWSCF v.6.4 starts on 23May2020 at 23:25:51 

     This program is part of the open-source Quantum ESPRESSO suite
     for quantum simulation of materials; please cite
         "P. Giannozzi et al., J. Phys.:Condens. Matter 21 395502 (2009);
         "P. Giannozzi et al., J. Phys.:Condens. Matter 29 465901 (2017);
          URL http://www.quantum-espresso.org", 
     in publications or presentations arising from this work. More details at
     http://www.quantum-espresso.org/quote

     Parallel version (MPI), running on    32 processors

     MPI processes distributed on     1 nodes
     K-points division:     npool     =       4
     R & G space division:  proc/nbgrp/npool/nimage =       8
     Waiting for input...
     Reading input from standard input
     Message from routine read_cards :
     DEPRECATED: no units specified in CELL_PARAMETERS card

     Current dimensions of program PWSCF are:
     Max number of different atomic species (ntypx) = 10
     Max number of k-points (npk) =  40000
     Max angular momentum in pseudopotentials (lmaxx) =  3
               file Pb.pbe-dn-kjpaw_psl.1.0.0.UPF: wavefunction(s)  6S 6P 5D renormalized
               file I.pbe-n-kjpaw_psl.1.0.0.UPF: wavefunction(s)  5S renormalized
               file C.pbe-n-kjpaw_psl.1.0.0.UPF: wavefunction(s)  2S 2P renormalized
               file N.pbe-n-kjpaw_psl.1.0.0.UPF: wavefunction(s)  2S renormalized
               file H.pbe-kjpaw_psl.1.0.0.UPF: wavefunction(s)  1S renormalized

     --------------------------------------------
     Parameters for DFT-D3 Dispersion Correction:
     --------------------------------------------
       Reference C6 values for interpolation: 

         atom   Coordination number   C6
         H          0.912             6.05
         H          0.000            15.18
         C          0.000            98.23
         C          0.987            86.49
         C          1.998            58.72
         C          2.999            51.56
         C          3.984            36.41
         N          0.000            50.54
         N          0.994            44.25
         N          2.014            39.35
         N          2.990            31.16
         I          0.000           703.93
         I          0.997           717.00
         Pb         0.000          1477.63
         Pb         0.938          1266.00
         Pb         1.936          1088.91
         Pb         2.908          1048.37
         Pb         3.910           910.57

       Values used:

         atom   Coordination number  R0_AB[au]  C6      C8
         Pb         4.887            4.041    910.57 144158.26
         Pb         4.873            4.041    910.57 144158.28
         Pb         4.934            4.041    910.57 144158.22
         Pb         4.900            4.041    910.57 144158.25
         Pb         4.904            4.041    910.57 144158.25
         Pb         4.897            4.041    910.57 144158.25
         Pb         4.854            4.041    910.57 144158.31
         Pb         4.901            4.041    910.57 144158.25
         I          1.927            3.532    717.00  65855.99
         I          1.941            3.532    717.00  65855.99
         I          1.976            3.532    717.00  65856.00
         I          1.911            3.532    717.00  65855.99
         I          1.961            3.532    717.00  65856.00
         I          2.035            3.532    717.00  65856.00
         I          1.915            3.532    717.00  65855.99
         I          1.991            3.532    717.00  65856.00
         I          2.045            3.532    717.00  65856.00
         I          1.938            3.532    717.00  65855.99
         I          1.913            3.532    717.00  65855.99
         I          2.056            3.532    717.00  65856.00
         I          1.947            3.532    717.00  65855.99
         I          1.908            3.532    717.00  65855.99
         I          2.054            3.532    717.00  65856.00
         I          1.903            3.532    717.00  65855.99
         I          1.995            3.532    717.00  65856.00
         I          2.042            3.532    717.00  65856.00
         I          1.892            3.532    717.00  65855.99
         I          1.960            3.532    717.00  65856.00
         I          2.043            3.532    717.00  65856.00
         I          1.947            3.532    717.00  65855.99
         I          1.932            3.532    717.00  65855.99
         I          1.972            3.532    717.00  65856.00
         C          3.068            2.750     51.06   1476.66
         C          4.022            2.750     36.61   1058.94
         C          4.027            2.750     36.61   1058.71
         C          4.027            2.750     36.61   1058.71
         C          4.026            2.750     36.61   1058.76
         C          4.027            2.750     36.61   1058.71
         C          4.021            2.750     36.62   1058.99
         C          3.069            2.750     51.05   1476.47
         N          3.099            2.478     31.24    689.08
         N          3.094            2.478     31.24    689.13
         N          4.048            2.478     31.16    687.49
         N          4.046            2.478     31.16    687.49
         N          4.049            2.478     31.16    687.49
         N          4.048            2.478     31.16    687.49
         N          4.045            2.478     31.16    687.49
         N          4.047            2.478     31.16    687.49
         N          3.100            2.478     31.23    689.06
         N          3.096            2.478     31.24    689.11
         H          1.017            2.062      6.17     74.54
         H          1.036            2.062      6.15     74.37
         H          1.067            2.062      6.13     74.13
         H          1.032            2.062      6.15     74.40
         H          1.055            2.062      6.14     74.21
         H          1.024            2.062      6.16     74.47
         H          1.033            2.062      6.15     74.39
         H          1.069            2.062      6.13     74.11
         H          1.005            2.062      6.18     74.66
         H          1.004            2.062      6.18     74.67
         H          1.012            2.062      6.17     74.60
         H          1.023            2.062      6.16     74.49
         H          1.034            2.062      6.15     74.38
         H          1.029            2.062      6.16     74.43
         H          1.008            2.062      6.17     74.63
         H          1.014            2.062      6.17     74.57
         H          1.007            2.062      6.17     74.65
         H          1.029            2.062      6.16     74.42
         H          1.068            2.062      6.13     74.12
         H          1.016            2.062      6.17     74.55
         H          1.006            2.062      6.18     74.65
         H          1.008            2.062      6.17     74.63
         H          1.010            2.062      6.17     74.62
         H          1.030            2.062      6.16     74.42
         H          1.066            2.062      6.13     74.14
         H          1.017            2.062      6.17     74.54
         H          1.006            2.062      6.18     74.66
         H          1.008            2.062      6.17     74.64
         H          1.010            2.062      6.17     74.62
         H          1.022            2.062      6.16     74.49
         H          1.032            2.062      6.15     74.40
         H          1.029            2.062      6.16     74.43
         H          1.008            2.062      6.17     74.63
         H          1.014            2.062      6.17     74.57
         H          1.006            2.062      6.18     74.65
         H          1.026            2.062      6.16     74.46
         H          1.030            2.062      6.16     74.42
         H          1.072            2.062      6.13     74.09
         H          1.005            2.062      6.18     74.66
         H          1.004            2.062      6.18     74.67
         H          1.011            2.062      6.17     74.60
         H          1.017            2.062      6.17     74.54
         H          1.034            2.062      6.15     74.38
         H          1.066            2.062      6.13     74.14
         H          1.032            2.062      6.15     74.40
         H          1.054            2.062      6.14     74.22

         Molecular C6 ( Ry / a.u.^6 ) =   1214903.34


     Subspace diagonalization in iterative solution of the eigenvalue problem:
     a serial algorithm will be used


     Parallelization info
     --------------------
     sticks:   dense  smooth     PW     G-vecs:    dense   smooth      PW
     Min        2774    2774    716               308318   308318   40370
     Max        2775    2775    717               308321   308321   40371
     Sum       22199   22199   5729              2466553  2466553  322961



     bravais-lattice index     =            0
     lattice parameter (alat)  =      24.1526  a.u.
     unit-cell volume          =   13889.9418 (a.u.)^3
     number of atoms/cell      =           96
     number of atomic types    =            5
     number of electrons       =       408.00
     number of Kohn-Sham states=          204
     kinetic-energy cutoff     =     120.0000  Ry
     charge density cutoff     =     480.0000  Ry
     convergence threshold     =      1.0E-07
     mixing beta               =       0.7000
     number of iterations used =            8  plain     mixing
     Exchange-correlation      = SLA PW PBX PBC ( 1  4  3  4 0 0)
     nstep                     =          150


     celldm(1)=  24.152590  celldm(2)=   0.000000  celldm(3)=   0.000000
     celldm(4)=   0.000000  celldm(5)=   0.000000  celldm(6)=   0.000000

     crystal axes: (cart. coord. in units of alat)
               a(1) = (   0.999669   0.000000   0.000000 )  
               a(2) = (   0.000000   0.997202   0.000000 )  
               a(3) = (   0.000000   0.000000   0.988940 )  

     reciprocal axes: (cart. coord. in units 2 pi/alat)
               b(1) = (  1.000331  0.000000  0.000000 )  
               b(2) = (  0.000000  1.002806  0.000000 )  
               b(3) = (  0.000000  0.000000  1.011184 )  


     PseudoPot. # 1 for Pb read from file:
     ../../Pseudopotential/Pb.pbe-dn-kjpaw_psl.1.0.0.UPF
     MD5 check sum: 684fc8fbce61a260853528575e4d9ab7
     Pseudo is Projector augmented-wave + core cor, Zval = 14.0
     Generated using "atomic" code by A. Dal Corso v.6.3
     Shape of augmentation charge: PSQ
     Using radial grid of 1281 points,  6 beta functions with: 
                l(1) =   0
                l(2) =   0
                l(3) =   1
                l(4) =   1
                l(5) =   2
                l(6) =   2
     Q(r) pseudized with 0 coefficients 


     PseudoPot. # 2 for I  read from file:
     ../../Pseudopotential/I.pbe-n-kjpaw_psl.1.0.0.UPF
     MD5 check sum: cd3d296c3308a581e1559a0c8a554cb5
     Pseudo is Projector augmented-wave + core cor, Zval =  7.0
     Generated using "atomic" code by A. Dal Corso v.6.3
     Shape of augmentation charge: PSQ
     Using radial grid of 1247 points,  6 beta functions with: 
                l(1) =   0
                l(2) =   0
                l(3) =   1
                l(4) =   1
                l(5) =   2
                l(6) =   2
     Q(r) pseudized with 0 coefficients 


     PseudoPot. # 3 for C  read from file:
     ../../Pseudopotential/C.pbe-n-kjpaw_psl.1.0.0.UPF
     MD5 check sum: 5f16ad9a65e90284d1d834d4ab3b0f7d
     Pseudo is Projector augmented-wave + core cor, Zval =  4.0
     Generated using "atomic" code by A. Dal Corso v.6.3
     Shape of augmentation charge: PSQ
     Using radial grid of 1073 points,  4 beta functions with: 
                l(1) =   0
                l(2) =   0
                l(3) =   1
                l(4) =   1
     Q(r) pseudized with 0 coefficients 


     PseudoPot. # 4 for N  read from file:
     ../../Pseudopotential/N.pbe-n-kjpaw_psl.1.0.0.UPF
     MD5 check sum: 14c48229446f9f2d411169a3abcbc3fa
     Pseudo is Projector augmented-wave + core cor, Zval =  5.0
     Generated using "atomic" code by A. Dal Corso v.6.3
     Shape of augmentation charge: PSQ
     Using radial grid of 1085 points,  4 beta functions with: 
                l(1) =   0
                l(2) =   0
                l(3) =   1
                l(4) =   1
     Q(r) pseudized with 0 coefficients 


     PseudoPot. # 5 for H  read from file:
     ../../Pseudopotential/H.pbe-kjpaw_psl.1.0.0.UPF
     MD5 check sum: d81a744832360e4a8af0b0b5b123bc2a
     Pseudo is Projector augmented-wave, Zval =  1.0
     Generated using "atomic" code by A. Dal Corso v.6.3MaX
     Shape of augmentation charge: PSQ
     Using radial grid of  929 points,  2 beta functions with: 
                l(1) =   0
                l(2) =   0
     Q(r) pseudized with 0 coefficients 


     atomic species   valence    mass     pseudopotential
        Pb            14.00   207.97600     Pb( 1.00)
        I              7.00   126.90400     I ( 1.00)
        C              4.00    12.00000     C ( 1.00)
        N              5.00    14.00300     N ( 1.00)
        H              1.00     1.00700     H ( 1.00)

     No symmetry found



   Cartesian axes

     site n.     atom                  positions (alat units)
         1           Pb  tau(   1) = (   0.0098206   0.0001156  -0.0043073  )
         2           Pb  tau(   2) = (   0.0088186   0.0012248   0.4892986  )
         3           Pb  tau(   3) = (   0.0049568   0.4996910  -0.0040215  )
         4           Pb  tau(   4) = (   0.0087792   0.4961252   0.4905088  )
         5           Pb  tau(   5) = (   0.5096046  -0.0036184  -0.0045697  )
         6           Pb  tau(   6) = (   0.5037020   0.0015428   0.4898462  )
         7           Pb  tau(   7) = (   0.5090967   0.4988702  -0.0044141  )
         8           Pb  tau(   8) = (   0.5100262   0.4991015   0.4905605  )
         9           I   tau(   9) = (   0.2600287   0.0307148  -0.0145142  )
        10           I   tau(  10) = (  -0.0035785   0.2484571  -0.0228137  )
        11           I   tau(  11) = (   0.0102129  -0.0135006   0.2448633  )
        12           I   tau(  12) = (   0.2581705   0.0373752   0.4965491  )
        13           I   tau(  13) = (  -0.0022657   0.2465092   0.5162495  )
        14           I   tau(  14) = (   0.0183030  -0.0348379   0.7392760  )
        15           I   tau(  15) = (   0.2572211   0.4930562  -0.0059902  )
        16           I   tau(  16) = (   0.0489921   0.7453012   0.0056267  )
        17           I   tau(  17) = (   0.0162406   0.4763585   0.2422416  )
        18           I   tau(  18) = (   0.2611050   0.4900219   0.4762986  )
        19           I   tau(  19) = (   0.0471504   0.7447066   0.4935022  )
        20           I   tau(  20) = (   0.0132175   0.4964076   0.7384619  )
        21           I   tau(  21) = (   0.7613415  -0.0099274  -0.0187300  )
        22           I   tau(  22) = (   0.5481701   0.2467663   0.0002676  )
        23           I   tau(  23) = (   0.5124543  -0.0022791   0.2429713  )
        24           I   tau(  24) = (   0.7583028  -0.0027155   0.4884414  )
        25           I   tau(  25) = (   0.5470501   0.2471910   0.5006871  )
        26           I   tau(  26) = (   0.5151730  -0.0217396   0.7376744  )
        27           I   tau(  27) = (   0.7572289   0.5389725   0.0031745  )
        28           I   tau(  28) = (   0.4943349   0.7463679   0.0211606  )
        29           I   tau(  29) = (   0.5172265   0.4638320   0.2449833  )
        30           I   tau(  30) = (   0.7609680   0.5280623   0.4799475  )
        31           I   tau(  31) = (   0.4974147   0.7459775   0.4722237  )
        32           I   tau(  32) = (   0.5093059   0.4842893   0.7387481  )
        33           C   tau(  33) = (   0.2537469   0.2820590   0.2484483  )
        34           C   tau(  34) = (   0.2803364   0.2758718   0.7441688  )
        35           C   tau(  35) = (   0.2819865   0.7817522   0.2488432  )
        36           C   tau(  36) = (   0.2879859   0.7799045   0.7456224  )
        37           C   tau(  37) = (   0.7878685   0.2812819   0.2515496  )
        38           C   tau(  38) = (   0.7819038   0.2829699   0.7427688  )
        39           C   tau(  39) = (   0.7805178   0.7746275   0.2499292  )
        40           C   tau(  40) = (   0.7533226   0.7805233   0.7427971  )
        41           N   tau(  41) = (   0.1617339   0.2359969   0.2487369  )
        42           N   tau(  42) = (   0.3445266   0.2334259   0.2494342  )
        43           N   tau(  43) = (   0.1937560   0.1967899   0.7536915  )
        44           N   tau(  44) = (   0.2015597   0.6962559   0.2586584  )
        45           N   tau(  45) = (   0.2030457   0.6999122   0.7548902  )
        46           N   tau(  46) = (   0.7023444   0.2016522   0.2611941  )
        47           N   tau(  47) = (   0.7018046   0.1973311   0.7527031  )
        48           N   tau(  48) = (   0.6946264   0.6945490   0.2588235  )
        49           N   tau(  49) = (   0.6615817   0.7350385   0.7442937  )
        50           N   tau(  50) = (   0.8438568   0.7326080   0.7430484  )
        51           H   tau(  51) = (   0.2550864   0.3676663   0.2474629  )
        52           H   tau(  52) = (   0.1516272   0.1563857   0.2499108  )
        53           H   tau(  53) = (   0.0979686   0.2844010   0.2470351  )
        54           H   tau(  54) = (   0.3515833   0.1534879   0.2507762  )
        55           H   tau(  55) = (   0.4096759   0.2797423   0.2484189  )
        56           H   tau(  56) = (   0.1728775   0.1667945   0.6817150  )
        57           H   tau(  57) = (   0.1268274   0.2275894   0.7879293  )
        58           H   tau(  58) = (   0.2159178   0.1344867   0.8014077  )
        59           H   tau(  59) = (   0.2932737   0.2947457   0.6617038  )
        60           H   tau(  60) = (   0.3515204   0.2446004   0.7797910  )
        61           H   tau(  61) = (   0.2580212   0.3460326   0.7870775  )
        62           H   tau(  62) = (   0.1843823   0.6633562   0.1870332  )
        63           H   tau(  63) = (   0.1316916   0.7235355   0.2896325  )
        64           H   tau(  64) = (   0.2258178   0.6366063   0.3081683  )
        65           H   tau(  65) = (   0.2917622   0.8029261   0.1664643  )
        66           H   tau(  66) = (   0.3559388   0.7551698   0.2824723  )
        67           H   tau(  67) = (   0.2551052   0.8490621   0.2936873  )
        68           H   tau(  68) = (   0.1531833   0.7010137   0.6907449  )
        69           H   tau(  69) = (   0.1573986   0.7119880   0.8217346  )
        70           H   tau(  70) = (   0.2326335   0.6253919   0.7607597  )
        71           H   tau(  71) = (   0.3163279   0.7815274   0.6649099  )
        72           H   tau(  72) = (   0.3506997   0.7603910   0.8005014  )
        73           H   tau(  73) = (   0.2555537   0.8559271   0.7663580  )
        74           H   tau(  74) = (   0.6539355   0.2011101   0.1958606  )
        75           H   tau(  75) = (   0.6552281   0.2154937   0.3267945  )
        76           H   tau(  76) = (   0.7318281   0.1273738   0.2700442  )
        77           H   tau(  77) = (   0.8149878   0.2835585   0.1703325  )
        78           H   tau(  78) = (   0.8513907   0.2607974   0.3052411  )
        79           H   tau(  79) = (   0.7563587   0.3572599   0.2737975  )
        80           H   tau(  80) = (   0.6848393   0.1631778   0.6814252  )
        81           H   tau(  81) = (   0.6320054   0.2245135   0.7837233  )
        82           H   tau(  82) = (   0.7258209   0.1387526   0.8032176  )
        83           H   tau(  83) = (   0.7906858   0.3039926   0.6604871  )
        84           H   tau(  84) = (   0.8565713   0.2567415   0.7752138  )
        85           H   tau(  85) = (   0.7551876   0.3505265   0.7873674  )
        86           H   tau(  86) = (   0.6773089   0.6611947   0.1871909  )
        87           H   tau(  87) = (   0.6262706   0.7257765   0.2894592  )
        88           H   tau(  88) = (   0.7158254   0.6346782   0.3102028  )
        89           H   tau(  89) = (   0.7915541   0.7952088   0.1675538  )
        90           H   tau(  90) = (   0.8526875   0.7432393   0.2835662  )
        91           H   tau(  91) = (   0.7583224   0.8437367   0.2948251  )
        92           H   tau(  92) = (   0.7546169   0.8659161   0.7412975  )
        93           H   tau(  93) = (   0.6509698   0.6557172   0.7455300  )
        94           H   tau(  94) = (   0.5980480   0.7834510   0.7437612  )
        95           H   tau(  95) = (   0.8517879   0.6529296   0.7447647  )
        96           H   tau(  96) = (   0.9088957   0.7786533   0.7431138  )

     number of k points=    32
                       cart. coord. in units 2pi/alat
        k(    1) = (   0.1250414   0.1253507   0.1263979), wk =   0.0625000
        k(    2) = (   0.1250414   0.1253507   0.3791938), wk =   0.0625000
        k(    3) = (   0.1250414   0.3760522   0.1263979), wk =   0.0625000
        k(    4) = (   0.1250414   0.3760522   0.3791938), wk =   0.0625000
        k(    5) = (   0.3751242   0.1253507   0.1263979), wk =   0.0625000
        k(    6) = (   0.3751242   0.1253507   0.3791938), wk =   0.0625000
        k(    7) = (   0.3751242   0.3760522   0.1263979), wk =   0.0625000
        k(    8) = (   0.3751242   0.3760522   0.3791938), wk =   0.0625000
        k(    9) = (  -0.1250414  -0.1253507   0.1263979), wk =   0.0625000
        k(   10) = (  -0.1250414   0.1253507  -0.1263979), wk =   0.0625000
        k(   11) = (   0.1250414  -0.1253507  -0.1263979), wk =   0.0625000
        k(   12) = (  -0.1250414  -0.1253507   0.3791938), wk =   0.0625000
        k(   13) = (  -0.1250414   0.1253507  -0.3791938), wk =   0.0625000
        k(   14) = (   0.1250414  -0.1253507  -0.3791938), wk =   0.0625000
        k(   15) = (  -0.1250414  -0.3760522   0.1263979), wk =   0.0625000
        k(   16) = (  -0.1250414   0.3760522  -0.1263979), wk =   0.0625000
        k(   17) = (   0.1250414  -0.3760522  -0.1263979), wk =   0.0625000
        k(   18) = (  -0.1250414  -0.3760522   0.3791938), wk =   0.0625000
        k(   19) = (  -0.1250414   0.3760522  -0.3791938), wk =   0.0625000
        k(   20) = (   0.1250414  -0.3760522  -0.3791938), wk =   0.0625000
        k(   21) = (  -0.3751242  -0.1253507   0.1263979), wk =   0.0625000
        k(   22) = (  -0.3751242   0.1253507  -0.1263979), wk =   0.0625000
        k(   23) = (   0.3751242  -0.1253507  -0.1263979), wk =   0.0625000
        k(   24) = (  -0.3751242  -0.1253507   0.3791938), wk =   0.0625000
        k(   25) = (  -0.3751242   0.1253507  -0.3791938), wk =   0.0625000
        k(   26) = (   0.3751242  -0.1253507  -0.3791938), wk =   0.0625000
        k(   27) = (  -0.3751242  -0.3760522   0.1263979), wk =   0.0625000
        k(   28) = (  -0.3751242   0.3760522  -0.1263979), wk =   0.0625000
        k(   29) = (   0.3751242  -0.3760522  -0.1263979), wk =   0.0625000
        k(   30) = (  -0.3751242  -0.3760522   0.3791938), wk =   0.0625000
        k(   31) = (  -0.3751242   0.3760522  -0.3791938), wk =   0.0625000
        k(   32) = (   0.3751242  -0.3760522  -0.3791938), wk =   0.0625000

     Dense  grid:  2466553 G-vectors     FFT dimensions: ( 180, 180, 180)

     Estimated max dynamical RAM per process >       3.24 GB

     Estimated total dynamical RAM >     103.58 GB

     Initial potential from superposition of free atoms

     starting charge  407.97850, renormalised to  408.00000
     Starting wfcs are  286 randomized atomic wfcs
     Checking if some PAW data can be deallocated... 

     total cpu time spent up to now is      911.1 secs

     Self-consistent Calculation

     iteration #  1     ecut=   120.00 Ry     beta= 0.70
     Davidson diagonalization with overlap
     ethr =  1.00E-02,  avg # of iterations =  2.0

     total cpu time spent up to now is     2577.7 secs

     total energy              =  -16543.23255033 Ry
     Harris-Foulkes estimate   =  -16546.82522392 Ry
     estimated scf accuracy    <       5.98014016 Ry

     iteration #  2     ecut=   120.00 Ry     beta= 0.70
     Davidson diagonalization with overlap
     ethr =  1.47E-03,  avg # of iterations =  3.9

     total cpu time spent up to now is     4805.5 secs

     total energy              =  -16544.53806623 Ry
     Harris-Foulkes estimate   =  -16545.93735159 Ry
     estimated scf accuracy    <       2.51221524 Ry

     iteration #  3     ecut=   120.00 Ry     beta= 0.70
     Davidson diagonalization with overlap
     ethr =  6.16E-04,  avg # of iterations =  4.0

     total cpu time spent up to now is     6568.6 secs

     total energy              =  -16545.11797245 Ry
     Harris-Foulkes estimate   =  -16545.17603576 Ry
     estimated scf accuracy    <       0.12705163 Ry

     iteration #  4     ecut=   120.00 Ry     beta= 0.70
     Davidson diagonalization with overlap
     ethr =  3.11E-05,  avg # of iterations =  4.0

     total cpu time spent up to now is     8800.9 secs

     total energy              =  -16545.15185549 Ry
     Harris-Foulkes estimate   =  -16545.16972674 Ry
     estimated scf accuracy    <       0.03453179 Ry

     iteration #  5     ecut=   120.00 Ry     beta= 0.70
     Davidson diagonalization with overlap
     ethr =  8.46E-06,  avg # of iterations =  4.0

     total cpu time spent up to now is    10653.5 secs

     total energy              =  -16545.15870622 Ry
     Harris-Foulkes estimate   =  -16545.16013385 Ry
     estimated scf accuracy    <       0.00272557 Ry

     iteration #  6     ecut=   120.00 Ry     beta= 0.70
     Davidson diagonalization with overlap
     ethr =  6.68E-07,  avg # of iterations =  4.0

     total cpu time spent up to now is    12753.5 secs

     total energy              =  -16545.15945524 Ry
     Harris-Foulkes estimate   =  -16545.15978092 Ry
     estimated scf accuracy    <       0.00073216 Ry

     iteration #  7     ecut=   120.00 Ry     beta= 0.70
     Davidson diagonalization with overlap
     ethr =  1.79E-07,  avg # of iterations =  4.0

     total cpu time spent up to now is    14693.7 secs

     total energy              =  -16545.15960315 Ry
     Harris-Foulkes estimate   =  -16545.15965281 Ry
     estimated scf accuracy    <       0.00010529 Ry

     iteration #  8     ecut=   120.00 Ry     beta= 0.70
     Davidson diagonalization with overlap
     ethr =  2.58E-08,  avg # of iterations =  4.0

     total cpu time spent up to now is    16625.0 secs

     total energy              =  -16545.15963235 Ry
     Harris-Foulkes estimate   =  -16545.15964015 Ry
     estimated scf accuracy    <       0.00001979 Ry

     iteration #  9     ecut=   120.00 Ry     beta= 0.70
     Davidson diagonalization with overlap
     ethr =  4.85E-09,  avg # of iterations =  4.0

     total cpu time spent up to now is    18533.1 secs

     total energy              =  -16545.15963624 Ry
     Harris-Foulkes estimate   =  -16545.15963707 Ry
     estimated scf accuracy    <       0.00000165 Ry

     iteration # 10     ecut=   120.00 Ry     beta= 0.70
     Davidson diagonalization with overlap
     ethr =  4.06E-10,  avg # of iterations =  4.0

     total cpu time spent up to now is    20491.6 secs

     total energy              =  -16545.15963666 Ry
     Harris-Foulkes estimate   =  -16545.15963683 Ry
     estimated scf accuracy    <       0.00000035 Ry

     iteration # 11     ecut=   120.00 Ry     beta= 0.70
     Davidson diagonalization with overlap
     ethr =  8.62E-11,  avg # of iterations =  4.0

     total cpu time spent up to now is    22380.6 secs

     End of self-consistent calculation

          k = 0.1250 0.1254 0.1264 (308333 PWs)   bands (ev):

   -18.1226 -18.0317 -17.8261 -17.8162 -17.8050 -17.7853 -17.6713 -17.6631
   -15.9244 -15.8443 -14.3869 -14.3844 -14.3733 -14.3705 -14.3658 -14.3646
   -14.3634 -14.3613 -14.3586 -14.3554 -14.3534 -14.3438 -14.3407 -14.3389
   -14.3377 -14.3340 -14.3333 -14.3319 -14.3307 -14.3270 -14.3258 -14.3255
   -14.3254 -14.3250 -14.3225 -14.3220 -14.3197 -14.3183 -14.3183 -14.3174
   -14.3172 -14.3147 -14.3110 -14.3075 -14.3005 -14.2939 -14.2912 -14.2874
   -14.2810 -14.2781 -10.7937 -10.7882 -10.7714 -10.7447 -10.7150 -10.7097
    -9.8743  -9.8074  -9.7177  -9.6724  -9.6395  -9.5757  -9.5294  -9.4985
    -9.4713  -9.4354  -9.3902  -9.3644  -9.3408  -9.3199  -9.2929  -9.2827
    -9.2613  -9.2489  -9.2088  -9.1675  -9.1593  -9.1296  -9.1242  -9.0888
    -9.0265  -9.0102  -7.9442  -7.8815  -7.3108  -7.2975  -7.2708  -7.2593
    -7.2508  -7.2339  -7.1862  -7.1721  -7.1617  -7.1450  -7.1332  -7.1292
    -7.0034  -6.9937  -6.0374  -5.6120  -5.5812  -5.5544  -5.5187  -5.4645
    -5.1800  -5.1768  -5.1603  -5.1507  -5.1277  -5.0979  -5.0943  -5.0852
    -5.0654  -4.6531  -4.0367  -4.0269  -3.4984  -3.4264  -3.0545  -3.0489
    -3.0008  -2.9900  -2.9807  -2.9715  -2.9522  -2.9482  -2.8893  -2.8710
    -2.8450  -2.8412  -1.1078  -1.0640  -0.9831  -0.9767  -0.9177  -0.8842
    -0.8764  -0.8322  -0.8035  -0.7791  -0.7600  -0.6726  -0.2838  -0.2043
     0.0823   0.0852   0.2340   0.2382   0.2820   0.3112   0.3940   0.4200
     0.4340   0.4599   0.5149   0.5505   0.5835   0.6564   0.6634   0.7030
     0.7289   0.7445   0.7536   0.7778   0.7815   0.8099   0.8460   0.8531
     0.9052   0.9284   0.9410   0.9550   0.9620   0.9812   0.9895   1.0028
     1.0285   1.0478   1.0784   1.0869   1.0945   1.1336   1.1406   1.1685
     1.1833   1.1940   1.2010   1.2198   1.2230   1.2643   1.3123   1.3894
     1.4036   1.4236   1.4477   1.4939   1.5127   1.5205   1.6487   1.6516
     1.6853   1.7347   1.7902   2.0155

          k = 0.1250 0.1254 0.3792 (308303 PWs)   bands (ev):

   -18.1226 -18.0317 -17.8261 -17.8162 -17.8050 -17.7853 -17.6713 -17.6631
   -15.9244 -15.8443 -14.3857 -14.3812 -14.3764 -14.3704 -14.3662 -14.3646
   -14.3627 -14.3614 -14.3585 -14.3555 -14.3534 -14.3439 -14.3407 -14.3389
   -14.3386 -14.3340 -14.3333 -14.3319 -14.3307 -14.3278 -14.3258 -14.3255
   -14.3253 -14.3250 -14.3225 -14.3220 -14.3197 -14.3183 -14.3183 -14.3174
   -14.3172 -14.3147 -14.3110 -14.3075 -14.3005 -14.2939 -14.2912 -14.2874
   -14.2810 -14.2781 -10.7934 -10.7878 -10.7719 -10.7448 -10.7150 -10.7097
    -9.8503  -9.8103  -9.7166  -9.6871  -9.6335  -9.5769  -9.5687  -9.5188
    -9.4947  -9.4801  -9.3563  -9.3451  -9.3034  -9.2902  -9.2826  -9.2686
    -9.2439  -9.2262  -9.1878  -9.1788  -9.1767  -9.1476  -9.1380  -9.1156
    -9.0235  -9.0174  -7.9443  -7.8816  -7.3108  -7.2939  -7.2678  -7.2604
    -7.2504  -7.2341  -7.1855  -7.1719  -7.1660  -7.1498  -7.1299  -7.1280
    -7.0034  -6.9939  -5.9034  -5.7010  -5.5405  -5.4986  -5.4660  -5.4363
    -5.2719  -5.2450  -5.1744  -5.1654  -5.1590  -5.1359  -5.0950  -5.0835
    -5.0148  -4.8213  -4.0368  -4.0269  -3.4981  -3.4260  -3.0528  -3.0485
    -2.9960  -2.9879  -2.9845  -2.9744  -2.9512  -2.9480  -2.8897  -2.8714
    -2.8443  -2.8419  -0.9692  -0.9170  -0.9143  -0.8850  -0.8415  -0.8118
    -0.7889  -0.7222  -0.6023  -0.5952  -0.5060  -0.4533  -0.2929  -0.1963
     0.0082   0.0249   0.1291   0.1435   0.2332   0.2406   0.2781   0.2862
     0.2968   0.3102   0.3524   0.3745   0.3936   0.4338   0.6760   0.6815
     0.7089   0.7152   0.7547   0.7678   0.7874   0.7903   0.8438   0.8556
     0.8710   0.8806   0.9097   0.9443   0.9719   0.9889   1.0082   1.0212
     1.0479   1.0893   1.0920   1.1100   1.1213   1.1349   1.1744   1.1806
     1.1921   1.1999   1.2191   1.2257   1.2521   1.2746   1.2950   1.3046
     1.3272   1.3379   1.4112   1.4313   1.4715   1.5013   1.5602   1.5758
     1.6451   1.6542   1.7338   1.8077

          k = 0.1250 0.3761 0.1264 (308345 PWs)   bands (ev):

   -18.1226 -18.0317 -17.8261 -17.8162 -17.8050 -17.7853 -17.6713 -17.6631
   -15.9244 -15.8443 -14.3869 -14.3843 -14.3729 -14.3702 -14.3651 -14.3636
   -14.3629 -14.3620 -14.3581 -14.3554 -14.3548 -14.3443 -14.3407 -14.3389
   -14.3380 -14.3340 -14.3333 -14.3319 -14.3307 -14.3272 -14.3258 -14.3257
   -14.3254 -14.3250 -14.3225 -14.3220 -14.3197 -14.3183 -14.3183 -14.3174
   -14.3172 -14.3148 -14.3110 -14.3075 -14.3005 -14.2939 -14.2912 -14.2874
   -14.2810 -14.2781 -10.7930 -10.7881 -10.7717 -10.7448 -10.7152 -10.7100
    -9.8524  -9.8179  -9.7139  -9.6791  -9.6350  -9.5763  -9.5546  -9.5120
    -9.4686  -9.4554  -9.3970  -9.3739  -9.3351  -9.3244  -9.2804  -9.2674
    -9.2456  -9.2287  -9.1722  -9.1675  -9.1522  -9.1415  -9.1311  -9.0969
    -9.0330  -9.0262  -7.9439  -7.8813  -7.3106  -7.2976  -7.2708  -7.2593
    -7.2509  -7.2337  -7.1862  -7.1724  -7.1617  -7.1451  -7.1332  -7.1291
    -7.0033  -6.9936  -5.9175  -5.7369  -5.5482  -5.4998  -5.4732  -5.3967
    -5.3040  -5.2307  -5.1695  -5.1661  -5.1568  -5.1340  -5.0938  -5.0822
    -4.9677  -4.7938  -4.0367  -4.0268  -3.4985  -3.4264  -3.0534  -3.0496
    -2.9958  -2.9883  -2.9845  -2.9744  -2.9498  -2.9468  -2.8897  -2.8720
    -2.8452  -2.8433  -1.0804  -1.0649  -0.9647  -0.9403  -0.8975  -0.8801
    -0.7761  -0.7385  -0.5576  -0.4920  -0.4203  -0.3737  -0.2442  -0.2139
     0.0034   0.0675   0.1094   0.1407   0.1990   0.2298   0.2367   0.2595
     0.3293   0.3376   0.3758   0.3963   0.4764   0.5732   0.5936   0.6354
     0.6563   0.6715   0.7616   0.7729   0.8024   0.8279   0.8559   0.8567
     0.8827   0.9024   0.9356   0.9409   0.9554   0.9627   0.9901   1.0227
     1.0494   1.0603   1.0814   1.0975   1.1069   1.1394   1.1595   1.1629
     1.1809   1.2191   1.2365   1.2466   1.2860   1.2995   1.3297   1.3440
     1.3518   1.3752   1.4155   1.4958   1.5013   1.5233   1.5273   1.5695
     1.5757   1.5951   1.8059   1.8516

          k = 0.1250 0.3761 0.3792 (308288 PWs)   bands (ev):

   -18.1226 -18.0317 -17.8261 -17.8162 -17.8050 -17.7853 -17.6713 -17.6631
   -15.9244 -15.8443 -14.3857 -14.3810 -14.3760 -14.3701 -14.3649 -14.3643
   -14.3621 -14.3620 -14.3581 -14.3554 -14.3548 -14.3444 -14.3407 -14.3389
   -14.3389 -14.3340 -14.3333 -14.3319 -14.3307 -14.3279 -14.3258 -14.3257
   -14.3253 -14.3250 -14.3225 -14.3220 -14.3197 -14.3183 -14.3183 -14.3174
   -14.3172 -14.3148 -14.3110 -14.3075 -14.3005 -14.2939 -14.2912 -14.2874
   -14.2810 -14.2781 -10.7929 -10.7875 -10.7723 -10.7450 -10.7152 -10.7100
    -9.8392  -9.8056  -9.7126  -9.6859  -9.6214  -9.5885  -9.5777  -9.5539
    -9.5107  -9.4992  -9.3448  -9.3285  -9.2922  -9.2847  -9.2727  -9.2639
    -9.2425  -9.2262  -9.1899  -9.1842  -9.1566  -9.1491  -9.1289  -9.1111
    -9.0376  -9.0311  -7.9440  -7.8814  -7.3107  -7.2940  -7.2678  -7.2604
    -7.2504  -7.2339  -7.1856  -7.1721  -7.1660  -7.1498  -7.1302  -7.1276
    -7.0034  -6.9937  -5.7878  -5.6335  -5.5749  -5.5343  -5.4798  -5.3872
    -5.3487  -5.2165  -5.1800  -5.1659  -5.1527  -5.1286  -5.1160  -5.0905
    -5.0702  -4.9551  -4.0367  -4.0268  -3.4982  -3.4261  -3.0524  -3.0486
    -2.9957  -2.9882  -2.9842  -2.9743  -2.9490  -2.9462  -2.8900  -2.8723
    -2.8449  -2.8435  -0.8989  -0.8652  -0.8119  -0.7815  -0.7204  -0.6823
    -0.6028  -0.5349  -0.5122  -0.4714  -0.3801  -0.3638  -0.2395  -0.2012
    -0.0874  -0.0002   0.0270   0.0743   0.1077   0.1330   0.1899   0.2228
     0.2757   0.2982   0.3437   0.3492   0.4415   0.4877   0.5321   0.5857
     0.5929   0.6079   0.6230   0.6433   0.6527   0.6832   0.7612   0.7726
     0.8180   0.8245   0.9066   0.9081   0.9555   0.9714   1.0357   1.0489
     1.1057   1.1120   1.1253   1.1442   1.1554   1.1596   1.1773   1.1790
     1.2117   1.2230   1.2342   1.2405   1.2651   1.2745   1.3047   1.3080
     1.3363   1.3506   1.3722   1.4226   1.4277   1.4725   1.4949   1.5230
     1.5616   1.5868   1.6193   1.6541

          k = 0.3751 0.1254 0.1264 (308322 PWs)   bands (ev):

   -18.1226 -18.0317 -17.8261 -17.8162 -17.8050 -17.7853 -17.6713 -17.6631
   -15.9244 -15.8443 -14.3867 -14.3843 -14.3731 -14.3696 -14.3658 -14.3636
   -14.3630 -14.3616 -14.3590 -14.3568 -14.3537 -14.3429 -14.3406 -14.3389
   -14.3380 -14.3340 -14.3333 -14.3319 -14.3307 -14.3271 -14.3261 -14.3258
   -14.3254 -14.3250 -14.3225 -14.3220 -14.3197 -14.3184 -14.3183 -14.3174
   -14.3172 -14.3149 -14.3110 -14.3075 -14.3005 -14.2939 -14.2912 -14.2874
   -14.2810 -14.2781 -10.7933 -10.7884 -10.7716 -10.7446 -10.7152 -10.7101
    -9.8455  -9.8093  -9.7259  -9.7056  -9.6139  -9.5681  -9.5540  -9.5159
    -9.4663  -9.4618  -9.3752  -9.3730  -9.3458  -9.3386  -9.2892  -9.2816
    -9.2438  -9.2261  -9.1856  -9.1572  -9.1399  -9.1354  -9.1029  -9.0895
    -9.0515  -9.0353  -7.9448  -7.8821  -7.3105  -7.2975  -7.2708  -7.2590
    -7.2509  -7.2338  -7.1861  -7.1722  -7.1618  -7.1450  -7.1330  -7.1292
    -7.0033  -6.9938  -5.9163  -5.7322  -5.5461  -5.4978  -5.4737  -5.4008
    -5.3065  -5.2283  -5.1701  -5.1655  -5.1573  -5.1336  -5.0934  -5.0825
    -4.9717  -4.7963  -4.0369  -4.0271  -3.4985  -3.4265  -3.0528  -3.0490
    -2.9993  -2.9915  -2.9808  -2.9718  -2.9511  -2.9479  -2.8864  -2.8635
    -2.8520  -2.8453  -1.0909  -1.0769  -0.9702  -0.9505  -0.8932  -0.8812
    -0.8010  -0.7789  -0.5363  -0.4594  -0.4286  -0.3313  -0.2477  -0.1928
     0.0281   0.0787   0.0962   0.1232   0.2129   0.2789   0.2835   0.3231
     0.3469   0.3667   0.4100   0.4478   0.4722   0.5266   0.5692   0.5869
     0.6009   0.6280   0.7615   0.7764   0.8030   0.8132   0.8236   0.8258
     0.8573   0.9092   0.9253   0.9426   0.9688   0.9866   0.9946   1.0036
     1.0488   1.0739   1.0839   1.1013   1.1190   1.1464   1.1684   1.1773
     1.2050   1.2143   1.2253   1.2525   1.2631   1.2769   1.3287   1.3515
     1.3826   1.3893   1.4092   1.4395   1.4591   1.4619   1.5440   1.5740
     1.5833   1.6425   1.7579   1.8188

          k = 0.3751 0.1254 0.3792 (308306 PWs)   bands (ev):

   -18.1226 -18.0317 -17.8261 -17.8162 -17.8050 -17.7853 -17.6713 -17.6631
   -15.9244 -15.8443 -14.3855 -14.3810 -14.3762 -14.3695 -14.3662 -14.3631
   -14.3627 -14.3617 -14.3589 -14.3569 -14.3537 -14.3429 -14.3406 -14.3390
   -14.3389 -14.3340 -14.3333 -14.3319 -14.3307 -14.3279 -14.3261 -14.3258
   -14.3253 -14.3250 -14.3225 -14.3220 -14.3197 -14.3183 -14.3183 -14.3174
   -14.3172 -14.3149 -14.3110 -14.3075 -14.3005 -14.2939 -14.2912 -14.2874
   -14.2810 -14.2781 -10.7931 -10.7878 -10.7721 -10.7448 -10.7152 -10.7101
    -9.8334  -9.7999  -9.7139  -9.6785  -9.6535  -9.6160  -9.5642  -9.5337
    -9.4986  -9.4859  -9.3524  -9.3495  -9.3074  -9.2955  -9.2684  -9.2595
    -9.2313  -9.2154  -9.1840  -9.1800  -9.1710  -9.1524  -9.1070  -9.0966
    -9.0483  -9.0412  -7.9450  -7.8823  -7.3105  -7.2940  -7.2678  -7.2602
    -7.2504  -7.2339  -7.1856  -7.1720  -7.1660  -7.1497  -7.1299  -7.1277
    -7.0035  -6.9939  -5.7858  -5.6050  -5.5903  -5.5341  -5.4850  -5.3955
    -5.3483  -5.2169  -5.1794  -5.1656  -5.1535  -5.1292  -5.1149  -5.0912
    -5.0708  -4.9571  -4.0370  -4.0271  -3.4982  -3.4261  -3.0525  -3.0485
    -2.9952  -2.9886  -2.9844  -2.9747  -2.9503  -2.9469  -2.8867  -2.8636
    -2.8519  -2.8452  -0.9505  -0.9302  -0.8585  -0.8396  -0.6547  -0.6389
    -0.5352  -0.5003  -0.4665  -0.4555  -0.3748  -0.3618  -0.2576  -0.2308
    -0.0214   0.0291   0.0446   0.0807   0.1448   0.1571   0.1924   0.2012
     0.2377   0.2656   0.3082   0.3137   0.4260   0.4574   0.5604   0.5694
     0.6239   0.6332   0.6821   0.6960   0.7185   0.7237   0.7617   0.7785
     0.8227   0.8235   0.8483   0.8497   0.9282   0.9572   1.0264   1.0427
     1.0606   1.0703   1.0802   1.1187   1.1368   1.1819   1.1964   1.2042
     1.2141   1.2258   1.2564   1.2650   1.2748   1.2867   1.2998   1.3145
     1.3311   1.3456   1.3638   1.3830   1.3977   1.4328   1.4628   1.5140
     1.5534   1.5869   1.6535   1.6619

          k = 0.3751 0.3761 0.1264 (308400 PWs)   bands (ev):

   -18.1226 -18.0317 -17.8261 -17.8162 -17.8050 -17.7853 -17.6713 -17.6631
   -15.9244 -15.8443 -14.3867 -14.3842 -14.3727 -14.3693 -14.3646 -14.3632
   -14.3629 -14.3617 -14.3580 -14.3570 -14.3554 -14.3434 -14.3406 -14.3389
   -14.3383 -14.3340 -14.3333 -14.3319 -14.3307 -14.3272 -14.3263 -14.3258
   -14.3254 -14.3250 -14.3225 -14.3220 -14.3197 -14.3183 -14.3183 -14.3174
   -14.3172 -14.3151 -14.3110 -14.3075 -14.3005 -14.2939 -14.2912 -14.2874
   -14.2810 -14.2781 -10.7940 -10.7881 -10.7711 -10.7443 -10.7154 -10.7102
    -9.8358  -9.8051  -9.7146  -9.6974  -9.6438  -9.6023  -9.5369  -9.5208
    -9.4652  -9.4605  -9.3981  -9.3934  -9.3500  -9.3417  -9.2671  -9.2595
    -9.2167  -9.1963  -9.1656  -9.1608  -9.1540  -9.1428  -9.1151  -9.0933
    -9.0551  -9.0455  -7.9445  -7.8819  -7.3104  -7.2976  -7.2708  -7.2592
    -7.2509  -7.2336  -7.1864  -7.1723  -7.1619  -7.1450  -7.1331  -7.1290
    -7.0033  -6.9936  -5.8001  -5.6446  -5.5920  -5.5431  -5.4915  -5.4421
    -5.3075  -5.1809  -5.1746  -5.1604  -5.1401  -5.1188  -5.0980  -5.0869
    -5.0722  -4.9290  -4.0369  -4.0270  -3.4986  -3.4265  -3.0529  -3.0487
    -2.9952  -2.9889  -2.9845  -2.9746  -2.9491  -2.9463  -2.8865  -2.8644
    -2.8528  -2.8471  -1.0726  -1.0594  -0.9639  -0.9464  -0.5821  -0.5748
    -0.5007  -0.4804  -0.4640  -0.4231  -0.3915  -0.3636  -0.2236  -0.1969
    -0.0043   0.0427   0.0988   0.1059   0.1321   0.1426   0.2145   0.2262
     0.2476   0.2791   0.3121   0.3165   0.3752   0.4118   0.4587   0.5343
     0.5964   0.6629   0.6972   0.7211   0.7444   0.7712   0.8063   0.8499
     0.8696   0.8746   0.9056   0.9195   0.9423   0.9773   0.9865   0.9989
     1.0235   1.0377   1.0818   1.0865   1.1005   1.1116   1.1302   1.1600
     1.1839   1.2013   1.2360   1.2800   1.2937   1.3020   1.3400   1.3523
     1.3762   1.3874   1.4040   1.4222   1.4419   1.4546   1.4881   1.5260
     1.5610   1.5732   1.6489   1.6563

          k = 0.3751 0.3761 0.3792 (308354 PWs)   bands (ev):

   -18.1226 -18.0317 -17.8261 -17.8162 -17.8050 -17.7853 -17.6713 -17.6631
   -15.9244 -15.8443 -14.3855 -14.3809 -14.3759 -14.3693 -14.3647 -14.3633
   -14.3622 -14.3618 -14.3581 -14.3571 -14.3554 -14.3435 -14.3406 -14.3393
   -14.3389 -14.3340 -14.3333 -14.3319 -14.3307 -14.3280 -14.3264 -14.3258
   -14.3253 -14.3250 -14.3225 -14.3220 -14.3197 -14.3183 -14.3183 -14.3174
   -14.3172 -14.3151 -14.3110 -14.3075 -14.3005 -14.2939 -14.2912 -14.2874
   -14.2810 -14.2781 -10.7936 -10.7879 -10.7716 -10.7445 -10.7153 -10.7102
    -9.8297  -9.7945  -9.6981  -9.6728  -9.6323  -9.6075  -9.6032  -9.5760
    -9.5176  -9.5042  -9.3430  -9.3376  -9.2891  -9.2834  -9.2711  -9.2592
    -9.2187  -9.1999  -9.1867  -9.1819  -9.1589  -9.1512  -9.1148  -9.1002
    -9.0557  -9.0501  -7.9447  -7.8820  -7.3104  -7.2940  -7.2678  -7.2602
    -7.2505  -7.2338  -7.1857  -7.1721  -7.1660  -7.1497  -7.1297  -7.1277
    -7.0033  -6.9938  -5.6746  -5.5587  -5.5183  -5.4955  -5.4685  -5.4434
    -5.3374  -5.3069  -5.2563  -5.1895  -5.1572  -5.1514  -5.1280  -5.1057
    -5.0810  -5.0578  -4.0369  -4.0271  -3.4982  -3.4262  -3.0522  -3.0485
    -2.9953  -2.9886  -2.9842  -2.9747  -2.9481  -2.9455  -2.8868  -2.8644
    -2.8527  -2.8469  -0.7397  -0.7210  -0.6358  -0.5921  -0.5276  -0.5181
    -0.4885  -0.4834  -0.4288  -0.4208  -0.3678  -0.3565  -0.2325  -0.2139
    -0.0468  -0.0402   0.0283   0.0441   0.0545   0.1039   0.1395   0.1522
     0.1883   0.1965   0.2233   0.2370   0.4348   0.4920   0.5208   0.5650
     0.5746   0.5918   0.6304   0.6403   0.6632   0.6671   0.7289   0.7322
     0.7607   0.7687   0.8246   0.8362   0.8702   0.9110   0.9225   0.9391
     0.9661   1.0019   1.0424   1.1067   1.1579   1.1681   1.1870   1.1901
     1.2209   1.2349   1.2452   1.2544   1.2699   1.2758   1.2965   1.3081
     1.3416   1.3593   1.3740   1.3942   1.4173   1.4202   1.4573   1.4667
     1.4984   1.5112   1.5595   1.5724

          k =-0.1250-0.1254 0.1264 (308333 PWs)   bands (ev):

   -18.1226 -18.0317 -17.8261 -17.8162 -17.8050 -17.7853 -17.6713 -17.6631
   -15.9244 -15.8443 -14.3869 -14.3844 -14.3733 -14.3705 -14.3658 -14.3646
   -14.3634 -14.3613 -14.3586 -14.3554 -14.3534 -14.3438 -14.3407 -14.3389
   -14.3377 -14.3340 -14.3333 -14.3319 -14.3307 -14.3270 -14.3258 -14.3255
   -14.3254 -14.3250 -14.3225 -14.3220 -14.3197 -14.3183 -14.3183 -14.3174
   -14.3172 -14.3147 -14.3110 -14.3075 -14.3005 -14.2939 -14.2912 -14.2874
   -14.2810 -14.2781 -10.7937 -10.7882 -10.7714 -10.7447 -10.7150 -10.7097
    -9.8738  -9.8074  -9.7168  -9.6737  -9.6470  -9.5645  -9.5309  -9.4941
    -9.4729  -9.4411  -9.3910  -9.3706  -9.3338  -9.3189  -9.2924  -9.2836
    -9.2590  -9.2517  -9.2098  -9.1668  -9.1566  -9.1303  -9.1248  -9.0888
    -9.0278  -9.0096  -7.9442  -7.8815  -7.3107  -7.2975  -7.2708  -7.2593
    -7.2507  -7.2339  -7.1861  -7.1721  -7.1617  -7.1450  -7.1332  -7.1292
    -7.0034  -6.9937  -6.0376  -5.6121  -5.5782  -5.5582  -5.5188  -5.4634
    -5.1772  -5.1744  -5.1601  -5.1533  -5.1292  -5.0983  -5.0932  -5.0842
    -5.0685  -4.6530  -4.0367  -4.0269  -3.4984  -3.4264  -3.0542  -3.0490
    -2.9994  -2.9890  -2.9820  -2.9724  -2.9520  -2.9486  -2.8893  -2.8711
    -2.8449  -2.8415  -1.0987  -1.0596  -0.9776  -0.9677  -0.9305  -0.8958
    -0.8785  -0.8323  -0.8076  -0.7804  -0.7619  -0.6732  -0.2843  -0.2045
     0.0832   0.0843   0.2354   0.2395   0.2794   0.3139   0.3952   0.4213
     0.4332   0.4590   0.5178   0.5580   0.5996   0.6516   0.6627   0.6837
     0.7327   0.7476   0.7692   0.7777   0.7905   0.8133   0.8546   0.8616
     0.8755   0.9113   0.9401   0.9435   0.9556   0.9714   0.9788   1.0081
     1.0307   1.0674   1.0811   1.0973   1.1013   1.1304   1.1320   1.1703
     1.1837   1.1979   1.2022   1.2163   1.2225   1.2629   1.3077   1.3812
     1.4221   1.4270   1.4495   1.4952   1.5117   1.5268   1.6484   1.6569
     1.6925   1.7114   1.7879   2.0029

          k =-0.1250 0.1254-0.1264 (308333 PWs)   bands (ev):

   -18.1226 -18.0317 -17.8261 -17.8162 -17.8050 -17.7853 -17.6713 -17.6631
   -15.9244 -15.8443 -14.3869 -14.3844 -14.3733 -14.3705 -14.3658 -14.3646
   -14.3634 -14.3613 -14.3586 -14.3554 -14.3534 -14.3438 -14.3407 -14.3389
   -14.3377 -14.3340 -14.3333 -14.3319 -14.3307 -14.3270 -14.3258 -14.3255
   -14.3254 -14.3250 -14.3225 -14.3220 -14.3197 -14.3183 -14.3183 -14.3174
   -14.3172 -14.3147 -14.3110 -14.3075 -14.3005 -14.2939 -14.2912 -14.2874
   -14.2810 -14.2781 -10.7943 -10.7881 -10.7711 -10.7444 -10.7151 -10.7096
    -9.8762  -9.8063  -9.7162  -9.6764  -9.6360  -9.5689  -9.5358  -9.4944
    -9.4736  -9.4394  -9.3887  -9.3728  -9.3344  -9.3263  -9.2846  -9.2794
    -9.2615  -9.2499  -9.2091  -9.1684  -9.1595  -9.1294  -9.1235  -9.0912
    -9.0263  -9.0095  -7.9442  -7.8815  -7.3108  -7.2975  -7.2708  -7.2592
    -7.2509  -7.2339  -7.1861  -7.1722  -7.1617  -7.1450  -7.1331  -7.1294
    -7.0033  -6.9938  -6.0378  -5.6110  -5.5790  -5.5586  -5.5185  -5.4628
    -5.1833  -5.1740  -5.1640  -5.1500  -5.1259  -5.1132  -5.0894  -5.0719
    -5.0668  -4.6533  -4.0367  -4.0269  -3.4984  -3.4264  -3.0549  -3.0485
    -3.0000  -2.9888  -2.9819  -2.9724  -2.9522  -2.9483  -2.8893  -2.8710
    -2.8450  -2.8413  -1.1063  -1.0564  -1.0169  -0.9707  -0.9049  -0.8893
    -0.8665  -0.8627  -0.7953  -0.7604  -0.7494  -0.6719  -0.2838  -0.2049
     0.0769   0.0920   0.2304   0.2425   0.2761   0.3147   0.3863   0.4013
     0.4443   0.4526   0.5183   0.5564   0.5947   0.6397   0.6489   0.7085
     0.7163   0.7417   0.7739   0.7883   0.7969   0.8267   0.8460   0.8761
     0.8999   0.9194   0.9325   0.9415   0.9591   0.9776   0.9843   1.0055
     1.0425   1.0469   1.0672   1.0767   1.0927   1.1369   1.1471   1.1631
     1.1762   1.1902   1.1989   1.2172   1.2331   1.2699   1.3103   1.3723
     1.4212   1.4310   1.4446   1.4875   1.5042   1.5248   1.6195   1.6498
     1.7052   1.7385   1.8018   2.0326

          k = 0.1250-0.1254-0.1264 (308333 PWs)   bands (ev):

   -18.1226 -18.0317 -17.8261 -17.8162 -17.8050 -17.7853 -17.6713 -17.6631
   -15.9244 -15.8443 -14.3869 -14.3844 -14.3733 -14.3705 -14.3658 -14.3646
   -14.3634 -14.3613 -14.3586 -14.3554 -14.3534 -14.3438 -14.3407 -14.3389
   -14.3377 -14.3340 -14.3333 -14.3319 -14.3307 -14.3270 -14.3258 -14.3255
   -14.3254 -14.3250 -14.3225 -14.3220 -14.3197 -14.3183 -14.3183 -14.3174
   -14.3172 -14.3147 -14.3110 -14.3075 -14.3005 -14.2939 -14.2912 -14.2874
   -14.2810 -14.2781 -10.7943 -10.7881 -10.7711 -10.7444 -10.7151 -10.7096
    -9.8766  -9.8053  -9.7160  -9.6729  -9.6420  -9.5700  -9.5340  -9.4952
    -9.4757  -9.4321  -9.3956  -9.3622  -9.3387  -9.3268  -9.2878  -9.2797
    -9.2607  -9.2511  -9.2090  -9.1684  -9.1575  -9.1294  -9.1242  -9.0917
    -9.0248  -9.0106  -7.9442  -7.8815  -7.3108  -7.2975  -7.2708  -7.2593
    -7.2508  -7.2339  -7.1859  -7.1722  -7.1617  -7.1451  -7.1333  -7.1291
    -7.0034  -6.9937  -6.0374  -5.6116  -5.5824  -5.5545  -5.5185  -5.4638
    -5.1824  -5.1747  -5.1620  -5.1500  -5.1281  -5.1128  -5.0893  -5.0725
    -5.0661  -4.6532  -4.0367  -4.0269  -3.4984  -3.4264  -3.0547  -3.0485
    -3.0013  -2.9898  -2.9806  -2.9713  -2.9519  -2.9484  -2.8894  -2.8712
    -2.8450  -2.8413  -1.1083  -1.0578  -1.0194  -0.9754  -0.8987  -0.8893
    -0.8689  -0.8654  -0.7867  -0.7570  -0.7491  -0.6709  -0.2839  -0.2047
     0.0761   0.0914   0.2306   0.2424   0.2779   0.3098   0.3818   0.4053
     0.4449   0.4519   0.5331   0.5577   0.5871   0.6414   0.6457   0.7003
     0.7032   0.7434   0.7732   0.7789   0.7897   0.8252   0.8549   0.8609
     0.9052   0.9273   0.9338   0.9457   0.9618   0.9831   0.9923   1.0068
     1.0453   1.0550   1.0714   1.0779   1.0910   1.1298   1.1465   1.1636
     1.1796   1.1880   1.1988   1.2179   1.2224   1.2755   1.3106   1.3846
     1.4066   1.4273   1.4439   1.4823   1.5059   1.5280   1.6201   1.6433
     1.7085   1.7606   1.7924   2.0298

          k =-0.1250-0.1254 0.3792 (308303 PWs)   bands (ev):

   -18.1226 -18.0317 -17.8261 -17.8162 -17.8050 -17.7853 -17.6713 -17.6631
   -15.9244 -15.8443 -14.3857 -14.3812 -14.3764 -14.3704 -14.3662 -14.3646
   -14.3627 -14.3614 -14.3585 -14.3555 -14.3534 -14.3439 -14.3407 -14.3389
   -14.3386 -14.3340 -14.3333 -14.3319 -14.3307 -14.3278 -14.3258 -14.3255
   -14.3253 -14.3250 -14.3225 -14.3220 -14.3197 -14.3183 -14.3183 -14.3174
   -14.3172 -14.3147 -14.3110 -14.3075 -14.3005 -14.2939 -14.2912 -14.2874
   -14.2810 -14.2781 -10.7934 -10.7878 -10.7719 -10.7448 -10.7150 -10.7098
    -9.8494  -9.8104  -9.7131  -9.6954  -9.6349  -9.5762  -9.5570  -9.5212
    -9.4987  -9.4801  -9.3592  -9.3485  -9.2973  -9.2890  -9.2799  -9.2659
    -9.2518  -9.2323  -9.1805  -9.1757  -9.1744  -9.1510  -9.1404  -9.1151
    -9.0256  -9.0158  -7.9443  -7.8816  -7.3108  -7.2940  -7.2678  -7.2604
    -7.2504  -7.2341  -7.1854  -7.1718  -7.1660  -7.1498  -7.1300  -7.1279
    -7.0034  -6.9939  -5.9040  -5.7002  -5.5409  -5.4990  -5.4661  -5.4361
    -5.2713  -5.2431  -5.1746  -5.1650  -5.1596  -5.1358  -5.0951  -5.0834
    -5.0175  -4.8206  -4.0368  -4.0269  -3.4981  -3.4260  -3.0525  -3.0487
    -2.9927  -2.9883  -2.9858  -2.9757  -2.9509  -2.9485  -2.8897  -2.8715
    -2.8442  -2.8422  -0.9629  -0.9158  -0.9075  -0.8808  -0.8421  -0.8116
    -0.7809  -0.7306  -0.6113  -0.6086  -0.5152  -0.4606  -0.2948  -0.1962
     0.0139   0.0307   0.1400   0.1598   0.2227   0.2406   0.2823   0.2847
     0.2936   0.3149   0.3578   0.3653   0.3986   0.4385   0.6639   0.6845
     0.7067   0.7246   0.7376   0.7666   0.7914   0.8167   0.8426   0.8551
     0.8697   0.8770   0.9086   0.9181   0.9736   0.9916   1.0053   1.0117
     1.0677   1.0720   1.0982   1.1080   1.1192   1.1455   1.1720   1.1766
     1.1879   1.2117   1.2157   1.2295   1.2503   1.2781   1.2940   1.3058
     1.3257   1.3525   1.4138   1.4222   1.4805   1.5106   1.5443   1.5640
     1.6509   1.6527   1.7374   1.7956

          k =-0.1250 0.1254-0.3792 (308303 PWs)   bands (ev):

   -18.1226 -18.0317 -17.8261 -17.8162 -17.8050 -17.7853 -17.6713 -17.6631
   -15.9244 -15.8443 -14.3857 -14.3812 -14.3764 -14.3704 -14.3662 -14.3646
   -14.3627 -14.3614 -14.3585 -14.3555 -14.3534 -14.3439 -14.3407 -14.3389
   -14.3386 -14.3340 -14.3333 -14.3319 -14.3307 -14.3278 -14.3258 -14.3255
   -14.3253 -14.3250 -14.3225 -14.3220 -14.3197 -14.3183 -14.3183 -14.3174
   -14.3172 -14.3147 -14.3110 -14.3075 -14.3005 -14.2939 -14.2912 -14.2874
   -14.2810 -14.2781 -10.7938 -10.7880 -10.7715 -10.7446 -10.7150 -10.7097
    -9.8507  -9.8116  -9.7140  -9.6914  -9.6293  -9.5786  -9.5612  -9.5199
    -9.4990  -9.4810  -9.3560  -9.3519  -9.2998  -9.2875  -9.2796  -9.2667
    -9.2528  -9.2251  -9.1849  -9.1787  -9.1723  -9.1472  -9.1413  -9.1181
    -9.0249  -9.0150  -7.9443  -7.8816  -7.3108  -7.2939  -7.2678  -7.2604
    -7.2504  -7.2341  -7.1855  -7.1719  -7.1660  -7.1498  -7.1300  -7.1279
    -7.0034  -6.9939  -5.9040  -5.6993  -5.5409  -5.4987  -5.4680  -5.4351
    -5.2742  -5.2478  -5.1765  -5.1627  -5.1577  -5.1329  -5.0939  -5.0824
    -5.0166  -4.8214  -4.0368  -4.0270  -3.4981  -3.4260  -3.0529  -3.0485
    -2.9931  -2.9883  -2.9857  -2.9758  -2.9512  -2.9481  -2.8898  -2.8714
    -2.8443  -2.8420  -0.9951  -0.9412  -0.8901  -0.8841  -0.8155  -0.8021
    -0.7745  -0.7255  -0.6131  -0.5884  -0.5229  -0.4587  -0.2942  -0.1989
     0.0125   0.0320   0.1312   0.1541   0.2256   0.2398   0.2728   0.2765
     0.3006   0.3232   0.3573   0.3676   0.4009   0.4362   0.6496   0.6616
     0.7010   0.7311   0.7466   0.7752   0.7968   0.8232   0.8339   0.8364
     0.8712   0.8769   0.9139   0.9298   0.9917   0.9943   1.0103   1.0315
     1.0464   1.0793   1.0921   1.1194   1.1265   1.1391   1.1658   1.1721
     1.1909   1.1997   1.2090   1.2240   1.2428   1.2794   1.3035   1.3070
     1.3244   1.3562   1.4116   1.4194   1.4654   1.5048   1.5436   1.5574
     1.6278   1.6354   1.7824   1.8423

          k = 0.1250-0.1254-0.3792 (308303 PWs)   bands (ev):

   -18.1226 -18.0317 -17.8261 -17.8162 -17.8050 -17.7853 -17.6713 -17.6631
   -15.9244 -15.8443 -14.3857 -14.3812 -14.3764 -14.3704 -14.3662 -14.3646
   -14.3627 -14.3614 -14.3585 -14.3555 -14.3534 -14.3439 -14.3407 -14.3389
   -14.3386 -14.3340 -14.3333 -14.3319 -14.3307 -14.3278 -14.3258 -14.3255
   -14.3253 -14.3250 -14.3225 -14.3220 -14.3197 -14.3183 -14.3183 -14.3174
   -14.3172 -14.3147 -14.3110 -14.3075 -14.3005 -14.2939 -14.2912 -14.2874
   -14.2810 -14.2781 -10.7938 -10.7880 -10.7715 -10.7446 -10.7150 -10.7097
    -9.8519  -9.8098  -9.7137  -9.6886  -9.6389  -9.5734  -9.5596  -9.5230
    -9.4945  -9.4843  -9.3591  -9.3421  -9.3006  -9.2918  -9.2821  -9.2654
    -9.2501  -9.2298  -9.1884  -9.1762  -9.1697  -9.1467  -9.1393  -9.1203
    -9.0223  -9.0173  -7.9443  -7.8816  -7.3108  -7.2939  -7.2679  -7.2604
    -7.2503  -7.2341  -7.1854  -7.1719  -7.1661  -7.1499  -7.1303  -7.1276
    -7.0035  -6.9938  -5.9030  -5.7011  -5.5398  -5.4965  -5.4703  -5.4366
    -5.2734  -5.2463  -5.1766  -5.1617  -5.1590  -5.1335  -5.0939  -5.0824
    -5.0168  -4.8211  -4.0368  -4.0270  -3.4981  -3.4260  -3.0527  -3.0486
    -2.9961  -2.9879  -2.9844  -2.9743  -2.9508  -2.9484  -2.8898  -2.8716
    -2.8442  -2.8421  -1.0036  -0.9350  -0.8955  -0.8755  -0.8155  -0.8093
    -0.7801  -0.7232  -0.6089  -0.5937  -0.5098  -0.4487  -0.2951  -0.1949
     0.0065   0.0283   0.1259   0.1487   0.2318   0.2341   0.2783   0.2825
     0.2942   0.3152   0.3598   0.3621   0.3934   0.4418   0.6520   0.6652
     0.7148   0.7347   0.7471   0.7527   0.7977   0.8063   0.8378   0.8536
     0.8690   0.8978   0.9032   0.9180   0.9778   1.0034   1.0104   1.0413
     1.0590   1.0793   1.1010   1.1055   1.1226   1.1298   1.1703   1.1780
     1.1976   1.1994   1.2082   1.2310   1.2479   1.2709   1.2924   1.2993
     1.3309   1.3515   1.4110   1.4279   1.4670   1.4952   1.5448   1.5664
     1.6256   1.6379   1.7834   1.8393

          k =-0.1250-0.3761 0.1264 (308345 PWs)   bands (ev):

   -18.1226 -18.0317 -17.8261 -17.8162 -17.8050 -17.7853 -17.6713 -17.6631
   -15.9244 -15.8443 -14.3869 -14.3843 -14.3729 -14.3702 -14.3651 -14.3636
   -14.3629 -14.3620 -14.3581 -14.3554 -14.3548 -14.3443 -14.3407 -14.3389
   -14.3380 -14.3340 -14.3333 -14.3319 -14.3307 -14.3272 -14.3258 -14.3257
   -14.3254 -14.3250 -14.3225 -14.3220 -14.3197 -14.3183 -14.3183 -14.3174
   -14.3172 -14.3148 -14.3110 -14.3075 -14.3005 -14.2939 -14.2912 -14.2874
   -14.2810 -14.2781 -10.7930 -10.7881 -10.7717 -10.7448 -10.7152 -10.7100
    -9.8515  -9.8185  -9.7120  -9.6820  -9.6388  -9.5784  -9.5409  -9.5116
    -9.4691  -9.4675  -9.3848  -9.3825  -9.3317  -9.3265  -9.2798  -9.2689
    -9.2416  -9.2330  -9.1718  -9.1667  -9.1517  -9.1418  -9.1298  -9.0976
    -9.0361  -9.0239  -7.9439  -7.8813  -7.3106  -7.2976  -7.2708  -7.2592
    -7.2509  -7.2337  -7.1862  -7.1723  -7.1618  -7.1450  -7.1330  -7.1293
    -7.0032  -6.9937  -5.9182  -5.7358  -5.5489  -5.5007  -5.4730  -5.3953
    -5.3019  -5.2320  -5.1697  -5.1665  -5.1570  -5.1342  -5.0938  -5.0822
    -4.9684  -4.7935  -4.0367  -4.0268  -3.4985  -3.4265  -3.0532  -3.0496
    -2.9927  -2.9886  -2.9857  -2.9756  -2.9498  -2.9469  -2.8897  -2.8721
    -2.8452  -2.8435  -1.0723  -1.0626  -0.9656  -0.9395  -0.9033  -0.8788
    -0.7745  -0.7385  -0.5623  -0.4934  -0.4320  -0.3818  -0.2464  -0.2147
     0.0098   0.0745   0.1177   0.1472   0.1880   0.2291   0.2341   0.2745
     0.3248   0.3397   0.3781   0.3983   0.4823   0.5607   0.6105   0.6396
     0.6516   0.6658   0.7540   0.7841   0.7934   0.8314   0.8438   0.8720
     0.8781   0.9089   0.9278   0.9332   0.9487   0.9547   1.0019   1.0313
     1.0472   1.0533   1.0856   1.1064   1.1196   1.1252   1.1551   1.1600
     1.1718   1.2189   1.2276   1.2493   1.2890   1.2956   1.3344   1.3540
     1.3627   1.3852   1.4245   1.4916   1.4946   1.5219   1.5291   1.5411
     1.5913   1.5951   1.8051   1.8404

          k =-0.1250 0.3761-0.1264 (308345 PWs)   bands (ev):

   -18.1226 -18.0317 -17.8261 -17.8162 -17.8050 -17.7853 -17.6713 -17.6631
   -15.9244 -15.8443 -14.3869 -14.3843 -14.3729 -14.3702 -14.3651 -14.3636
   -14.3629 -14.3620 -14.3581 -14.3554 -14.3548 -14.3443 -14.3407 -14.3389
   -14.3380 -14.3340 -14.3333 -14.3319 -14.3307 -14.3272 -14.3258 -14.3257
   -14.3254 -14.3250 -14.3225 -14.3220 -14.3197 -14.3183 -14.3183 -14.3174
   -14.3172 -14.3148 -14.3110 -14.3075 -14.3005 -14.2939 -14.2912 -14.2874
   -14.2810 -14.2781 -10.7937 -10.7880 -10.7713 -10.7446 -10.7152 -10.7099
    -9.8559  -9.8151  -9.7104  -9.6867  -9.6232  -9.5866  -9.5451  -9.5131
    -9.4727  -9.4595  -9.3885  -9.3837  -9.3385  -9.3210  -9.2749  -9.2636
    -9.2456  -9.2343  -9.1708  -9.1655  -9.1533  -9.1434  -9.1268  -9.1023
    -9.0333  -9.0246  -7.9439  -7.8813  -7.3106  -7.2976  -7.2708  -7.2591
    -7.2510  -7.2337  -7.1861  -7.1725  -7.1617  -7.1451  -7.1331  -7.1292
    -7.0032  -6.9937  -5.9183  -5.7357  -5.5487  -5.5001  -5.4747  -5.3921
    -5.3017  -5.2396  -5.1760  -5.1606  -5.1575  -5.1312  -5.0931  -5.0815
    -4.9650  -4.7948  -4.0367  -4.0268  -3.4985  -3.4265  -3.0539  -3.0491
    -2.9936  -2.9881  -2.9857  -2.9756  -2.9497  -2.9469  -2.8897  -2.8720
    -2.8452  -2.8433  -1.0858  -1.0539  -0.9614  -0.9427  -0.9244  -0.8690
    -0.7938  -0.7320  -0.5383  -0.4779  -0.4100  -0.3740  -0.2463  -0.2156
    -0.0016   0.0524   0.1263   0.1303   0.1867   0.2192   0.2389   0.2617
     0.3270   0.3481   0.3842   0.3910   0.4730   0.5596   0.5873   0.6161
     0.6795   0.6834   0.7465   0.7782   0.8220   0.8372   0.8503   0.8676
     0.8874   0.9117   0.9203   0.9386   0.9558   0.9620   1.0130   1.0264
     1.0337   1.0558   1.0750   1.0885   1.1073   1.1309   1.1413   1.1746
     1.1869   1.2200   1.2326   1.2619   1.2876   1.2907   1.3076   1.3274
     1.3740   1.3981   1.4523   1.4572   1.4687   1.5127   1.5393   1.5475
     1.5790   1.6339   1.8018   1.8702

          k = 0.1250-0.3761-0.1264 (308345 PWs)   bands (ev):

   -18.1226 -18.0317 -17.8261 -17.8162 -17.8050 -17.7853 -17.6713 -17.6631
   -15.9244 -15.8443 -14.3869 -14.3843 -14.3729 -14.3702 -14.3651 -14.3636
   -14.3629 -14.3620 -14.3581 -14.3554 -14.3548 -14.3443 -14.3407 -14.3389
   -14.3380 -14.3340 -14.3333 -14.3319 -14.3307 -14.3272 -14.3258 -14.3257
   -14.3254 -14.3250 -14.3225 -14.3220 -14.3197 -14.3183 -14.3183 -14.3174
   -14.3172 -14.3148 -14.3110 -14.3075 -14.3005 -14.2939 -14.2912 -14.2874
   -14.2810 -14.2781 -10.7937 -10.7880 -10.7713 -10.7446 -10.7152 -10.7099
    -9.8569  -9.8140  -9.7109  -9.6814  -9.6289  -9.5876  -9.5513  -9.5056
    -9.4772  -9.4533  -9.3984  -9.3690  -9.3354  -9.3282  -9.2753  -9.2668
    -9.2431  -9.2366  -9.1698  -9.1645  -9.1526  -9.1438  -9.1286  -9.1014
    -9.0312  -9.0265  -7.9439  -7.8813  -7.3106  -7.2976  -7.2708  -7.2591
    -7.2509  -7.2337  -7.1860  -7.1724  -7.1618  -7.1451  -7.1331  -7.1292
    -7.0032  -6.9937  -5.9175  -5.7368  -5.5489  -5.5008  -5.4727  -5.3935
    -5.3018  -5.2377  -5.1768  -5.1611  -5.1575  -5.1314  -5.0933  -5.0818
    -4.9640  -4.7949  -4.0367  -4.0268  -3.4985  -3.4265  -3.0539  -3.0490
    -2.9966  -2.9879  -2.9842  -2.9741  -2.9496  -2.9468  -2.8898  -2.8722
    -2.8453  -2.8434  -1.0865  -1.0491  -0.9697  -0.9631  -0.9049  -0.8706
    -0.7936  -0.7317  -0.5342  -0.4774  -0.3996  -0.3667  -0.2443  -0.2147
    -0.0086   0.0477   0.1147   0.1174   0.1997   0.2253   0.2385   0.2554
     0.3170   0.3506   0.3862   0.3904   0.4683   0.5696   0.5799   0.6258
     0.6649   0.6856   0.7734   0.7777   0.8175   0.8284   0.8511   0.8763
     0.8849   0.9002   0.9205   0.9321   0.9519   0.9603   1.0135   1.0416
     1.0498   1.0600   1.0661   1.0828   1.1122   1.1365   1.1479   1.1651
     1.1730   1.2138   1.2462   1.2569   1.2937   1.2988   1.3088   1.3243
     1.3685   1.3834   1.4421   1.4616   1.4679   1.5277   1.5336   1.5504
     1.5786   1.6480   1.7925   1.8704

          k =-0.1250-0.3761 0.3792 (308288 PWs)   bands (ev):

   -18.1226 -18.0317 -17.8261 -17.8162 -17.8050 -17.7853 -17.6713 -17.6631
   -15.9244 -15.8443 -14.3857 -14.3810 -14.3760 -14.3701 -14.3649 -14.3643
   -14.3621 -14.3621 -14.3581 -14.3554 -14.3548 -14.3444 -14.3407 -14.3389
   -14.3389 -14.3340 -14.3333 -14.3319 -14.3307 -14.3279 -14.3258 -14.3257
   -14.3253 -14.3250 -14.3225 -14.3220 -14.3197 -14.3183 -14.3183 -14.3174
   -14.3172 -14.3148 -14.3110 -14.3075 -14.3005 -14.2939 -14.2912 -14.2874
   -14.2810 -14.2781 -10.7929 -10.7875 -10.7723 -10.7450 -10.7152 -10.7100
    -9.8382  -9.8061  -9.7042  -9.6991  -9.6193  -9.5921  -9.5672  -9.5528
    -9.5188  -9.4969  -9.3386  -9.3377  -9.2940  -9.2811  -9.2705  -9.2590
    -9.2426  -9.2370  -9.1854  -9.1821  -9.1569  -9.1498  -9.1269  -9.1131
    -9.0409  -9.0286  -7.9440  -7.8814  -7.3107  -7.2940  -7.2678  -7.2604
    -7.2504  -7.2340  -7.1856  -7.1720  -7.1661  -7.1497  -7.1300  -7.1278
    -7.0033  -6.9938  -5.7900  -5.6208  -5.5905  -5.5314  -5.4750  -5.3892
    -5.3511  -5.2074  -5.1785  -5.1685  -5.1558  -5.1273  -5.1182  -5.0911
    -5.0742  -4.9528  -4.0367  -4.0268  -3.4982  -3.4261  -3.0523  -3.0485
    -2.9929  -2.9878  -2.9859  -2.9756  -2.9489  -2.9465  -2.8900  -2.8724
    -2.8448  -2.8438  -0.8861  -0.8723  -0.8088  -0.7882  -0.7009  -0.6707
    -0.5885  -0.5490  -0.5097  -0.4628  -0.4398  -0.4032  -0.2504  -0.2106
    -0.0613   0.0186   0.0672   0.1053   0.1076   0.1386   0.1919   0.2025
     0.2801   0.2847   0.3328   0.3522   0.4636   0.4686   0.5525   0.5561
     0.5952   0.6060   0.6228   0.6518   0.6565   0.6655   0.7602   0.7826
     0.8126   0.8378   0.8871   0.9088   0.9628   0.9729   1.0329   1.0425
     1.1028   1.1081   1.1283   1.1372   1.1566   1.1625   1.1848   1.1870
     1.1935   1.2130   1.2364   1.2465   1.2657   1.2835   1.3029   1.3232
     1.3366   1.3657   1.3884   1.4038   1.4299   1.4409   1.5071   1.5143
     1.5713   1.5859   1.6246   1.6401

          k =-0.1250 0.3761-0.3792 (308288 PWs)   bands (ev):

   -18.1226 -18.0317 -17.8261 -17.8162 -17.8050 -17.7853 -17.6713 -17.6631
   -15.9244 -15.8443 -14.3857 -14.3810 -14.3760 -14.3701 -14.3649 -14.3643
   -14.3621 -14.3621 -14.3581 -14.3554 -14.3548 -14.3444 -14.3407 -14.3389
   -14.3389 -14.3340 -14.3333 -14.3319 -14.3307 -14.3279 -14.3258 -14.3257
   -14.3253 -14.3250 -14.3225 -14.3220 -14.3197 -14.3183 -14.3183 -14.3174
   -14.3172 -14.3148 -14.3110 -14.3075 -14.3005 -14.2939 -14.2912 -14.2874
   -14.2810 -14.2781 -10.7933 -10.7877 -10.7718 -10.7448 -10.7151 -10.7100
    -9.8397  -9.8069  -9.7032  -9.6994  -9.6081  -9.5907  -9.5726  -9.5600
    -9.5140  -9.5003  -9.3413  -9.3377  -9.2935  -9.2787  -9.2697  -9.2617
    -9.2463  -9.2286  -9.1882  -9.1856  -9.1519  -9.1454  -9.1304  -9.1179
    -9.0390  -9.0282  -7.9440  -7.8814  -7.3107  -7.2940  -7.2678  -7.2604
    -7.2504  -7.2340  -7.1856  -7.1720  -7.1660  -7.1497  -7.1303  -7.1276
    -7.0034  -6.9937  -5.7895  -5.6207  -5.5898  -5.5304  -5.4748  -5.3938
    -5.3538  -5.2058  -5.1846  -5.1635  -5.1568  -5.1232  -5.1182  -5.0894
    -5.0715  -4.9556  -4.0367  -4.0269  -3.4982  -3.4261  -3.0525  -3.0486
    -2.9928  -2.9883  -2.9857  -2.9757  -2.9489  -2.9464  -2.8901  -2.8723
    -2.8448  -2.8436  -0.9119  -0.8802  -0.8144  -0.7804  -0.6972  -0.6615
    -0.5848  -0.5472  -0.4832  -0.4498  -0.4371  -0.3932  -0.2474  -0.2143
    -0.0662   0.0127   0.0570   0.0905   0.1111   0.1244   0.1805   0.2064
     0.2663   0.3010   0.3397   0.3591   0.4623   0.4701   0.5411   0.5430
     0.5948   0.6089   0.6200   0.6434   0.6530   0.6751   0.7663   0.7745
     0.8021   0.8353   0.9049   0.9156   0.9790   0.9928   1.0238   1.0564
     1.1013   1.1060   1.1219   1.1357   1.1548   1.1621   1.1847   1.1907
     1.2099   1.2127   1.2240   1.2375   1.2452   1.2839   1.3014   1.3269
     1.3382   1.3509   1.3946   1.4053   1.4378   1.4418   1.4856   1.4971
     1.5509   1.5685   1.6703   1.6873

          k = 0.1250-0.3761-0.3792 (308288 PWs)   bands (ev):

   -18.1226 -18.0317 -17.8261 -17.8162 -17.8050 -17.7853 -17.6713 -17.6631
   -15.9244 -15.8443 -14.3857 -14.3810 -14.3760 -14.3701 -14.3649 -14.3643
   -14.3621 -14.3620 -14.3581 -14.3554 -14.3548 -14.3444 -14.3407 -14.3389
   -14.3389 -14.3340 -14.3333 -14.3319 -14.3307 -14.3279 -14.3258 -14.3257
   -14.3253 -14.3250 -14.3225 -14.3220 -14.3197 -14.3183 -14.3183 -14.3174
   -14.3172 -14.3148 -14.3110 -14.3075 -14.3005 -14.2939 -14.2912 -14.2874
   -14.2810 -14.2781 -10.7933 -10.7877 -10.7718 -10.7448 -10.7152 -10.7099
    -9.8412  -9.8054  -9.7088  -9.6851  -9.6303  -9.5833  -9.5717  -9.5552
    -9.5086  -9.5062  -9.3431  -9.3259  -9.2977  -9.2834  -9.2719  -9.2602
    -9.2410  -9.2364  -9.1891  -9.1811  -9.1518  -9.1459  -9.1328  -9.1157
    -9.0375  -9.0295  -7.9440  -7.8814  -7.3107  -7.2940  -7.2679  -7.2604
    -7.2504  -7.2340  -7.1855  -7.1720  -7.1661  -7.1498  -7.1303  -7.1276
    -7.0034  -6.9937  -5.7871  -5.6337  -5.5752  -5.5341  -5.4793  -5.3887
    -5.3509  -5.2135  -5.1861  -5.1643  -5.1531  -5.1274  -5.1145  -5.0890
    -5.0678  -4.9566  -4.0367  -4.0269  -3.4982  -3.4261  -3.0525  -3.0484
    -2.9960  -2.9881  -2.9841  -2.9742  -2.9488  -2.9463  -2.8902  -2.8725
    -2.8449  -2.8436  -0.9188  -0.8645  -0.8239  -0.7809  -0.7071  -0.6786
    -0.5927  -0.5420  -0.4937  -0.4590  -0.3732  -0.3597  -0.2405  -0.1995
    -0.0886  -0.0117   0.0153   0.0643   0.0888   0.1369   0.1969   0.2304
     0.2763   0.2872   0.3449   0.3555   0.4462   0.4897   0.5165   0.5632
     0.5960   0.6219   0.6343   0.6466   0.6637   0.6685   0.7418   0.7836
     0.8225   0.8265   0.8985   0.9023   0.9669   0.9913   1.0457   1.0550
     1.0955   1.1040   1.1304   1.1438   1.1545   1.1599   1.1851   1.1931
     1.2039   1.2129   1.2229   1.2415   1.2607   1.2675   1.3050   1.3115
     1.3368   1.3527   1.3755   1.4158   1.4441   1.4654   1.4711   1.5054
     1.5373   1.5815   1.6562   1.6933

          k =-0.3751-0.1254 0.1264 (308322 PWs)   bands (ev):

   -18.1226 -18.0317 -17.8261 -17.8162 -17.8050 -17.7853 -17.6713 -17.6631
   -15.9244 -15.8443 -14.3867 -14.3843 -14.3731 -14.3696 -14.3658 -14.3636
   -14.3630 -14.3616 -14.3590 -14.3568 -14.3537 -14.3429 -14.3406 -14.3389
   -14.3380 -14.3340 -14.3333 -14.3319 -14.3307 -14.3271 -14.3261 -14.3258
   -14.3254 -14.3250 -14.3225 -14.3220 -14.3197 -14.3184 -14.3183 -14.3174
   -14.3172 -14.3149 -14.3110 -14.3075 -14.3005 -14.2939 -14.2912 -14.2874
   -14.2810 -14.2781 -10.7933 -10.7883 -10.7716 -10.7446 -10.7152 -10.7101
    -9.8453  -9.8083  -9.7249  -9.7077  -9.6232  -9.5666  -9.5413  -9.5134
    -9.4712  -9.4594  -9.3909  -9.3744  -9.3399  -9.3318  -9.2882  -9.2823
    -9.2434  -9.2271  -9.1883  -9.1557  -9.1385  -9.1348  -9.1010  -9.0916
    -9.0526  -9.0352  -7.9448  -7.8822  -7.3105  -7.2975  -7.2708  -7.2591
    -7.2508  -7.2338  -7.1860  -7.1722  -7.1618  -7.1451  -7.1333  -7.1290
    -7.0034  -6.9938  -5.9163  -5.7327  -5.5457  -5.4965  -5.4767  -5.3996
    -5.3035  -5.2291  -5.1707  -5.1657  -5.1575  -5.1338  -5.0934  -5.0824
    -4.9730  -4.7959  -4.0369  -4.0271  -3.4985  -3.4265  -3.0527  -3.0490
    -2.9979  -2.9905  -2.9821  -2.9727  -2.9508  -2.9483  -2.8864  -2.8636
    -2.8519  -2.8455  -1.0826  -1.0724  -0.9584  -0.9479  -0.8995  -0.8973
    -0.8078  -0.7829  -0.5379  -0.4661  -0.4229  -0.3344  -0.2452  -0.1919
     0.0297   0.0763   0.0970   0.1260   0.2199   0.2732   0.2850   0.3324
     0.3460   0.3694   0.4010   0.4560   0.4901   0.5120   0.5546   0.5912
     0.6100   0.6260   0.7659   0.7727   0.8015   0.8153   0.8196   0.8427
     0.8619   0.8972   0.9325   0.9405   0.9594   0.9730   0.9818   0.9967
     1.0581   1.0651   1.0974   1.0986   1.1120   1.1457   1.1643   1.1777
     1.2024   1.2173   1.2347   1.2426   1.2742   1.2909   1.3330   1.3496
     1.3686   1.3931   1.4203   1.4422   1.4669   1.4763   1.5453   1.5708
     1.5903   1.6438   1.7415   1.7908

          k =-0.3751 0.1254-0.1264 (308322 PWs)   bands (ev):

   -18.1226 -18.0317 -17.8261 -17.8162 -17.8050 -17.7853 -17.6713 -17.6631
   -15.9244 -15.8443 -14.3867 -14.3843 -14.3731 -14.3696 -14.3658 -14.3636
   -14.3630 -14.3616 -14.3590 -14.3568 -14.3537 -14.3429 -14.3406 -14.3389
   -14.3380 -14.3340 -14.3333 -14.3319 -14.3307 -14.3271 -14.3261 -14.3258
   -14.3254 -14.3250 -14.3225 -14.3220 -14.3197 -14.3184 -14.3183 -14.3174
   -14.3172 -14.3149 -14.3110 -14.3075 -14.3005 -14.2939 -14.2912 -14.2874
   -14.2810 -14.2781 -10.7940 -10.7883 -10.7712 -10.7444 -10.7152 -10.7100
    -9.8497  -9.8060  -9.7241  -9.7061  -9.6108  -9.5776  -9.5476  -9.5105
    -9.4724  -9.4581  -9.3846  -9.3804  -9.3431  -9.3319  -9.2854  -9.2778
    -9.2499  -9.2205  -9.1882  -9.1581  -9.1410  -9.1313  -9.1023  -9.0955
    -9.0493  -9.0351  -7.9448  -7.8821  -7.3105  -7.2975  -7.2708  -7.2590
    -7.2510  -7.2338  -7.1859  -7.1723  -7.1618  -7.1451  -7.1331  -7.1291
    -7.0033  -6.9938  -5.9167  -5.7324  -5.5462  -5.4971  -5.4756  -5.3967
    -5.3045  -5.2357  -5.1767  -5.1609  -5.1585  -5.1306  -5.0929  -5.0822
    -4.9679  -4.7976  -4.0369  -4.0271  -3.4985  -3.4265  -3.0535  -3.0484
    -2.9986  -2.9902  -2.9820  -2.9727  -2.9510  -2.9480  -2.8864  -2.8635
    -2.8520  -2.8453  -1.0933  -1.0622  -0.9669  -0.9582  -0.9101  -0.8835
    -0.8228  -0.7755  -0.5134  -0.4501  -0.4065  -0.3260  -0.2449  -0.1914
     0.0160   0.0811   0.0857   0.1077   0.2068   0.2677   0.2869   0.3114
     0.3541   0.3751   0.4092   0.4595   0.4647   0.5067   0.5701   0.5820
     0.6100   0.6159   0.7818   0.7918   0.8030   0.8180   0.8361   0.8450
     0.8703   0.8985   0.9127   0.9472   0.9602   0.9754   0.9995   1.0148
     1.0256   1.0676   1.0832   1.0962   1.1007   1.1424   1.1483   1.1864
     1.2139   1.2212   1.2244   1.2489   1.2726   1.2967   1.3344   1.3415
     1.3914   1.3946   1.4025   1.4158   1.4476   1.4872   1.5348   1.5851
     1.5930   1.6614   1.7334   1.8230

          k = 0.3751-0.1254-0.1264 (308322 PWs)   bands (ev):

   -18.1226 -18.0317 -17.8261 -17.8162 -17.8050 -17.7853 -17.6713 -17.6631
   -15.9244 -15.8443 -14.3867 -14.3843 -14.3731 -14.3696 -14.3658 -14.3636
   -14.3630 -14.3616 -14.3590 -14.3568 -14.3537 -14.3429 -14.3406 -14.3389
   -14.3380 -14.3340 -14.3333 -14.3319 -14.3307 -14.3271 -14.3261 -14.3258
   -14.3254 -14.3250 -14.3225 -14.3220 -14.3197 -14.3184 -14.3183 -14.3174
   -14.3172 -14.3149 -14.3110 -14.3075 -14.3005 -14.2939 -14.2912 -14.2874
   -14.2810 -14.2781 -10.7940 -10.7883 -10.7712 -10.7444 -10.7152 -10.7100
    -9.8502  -9.8048  -9.7228  -9.7079  -9.6142  -9.5724  -9.5463  -9.5166
    -9.4768  -9.4526  -9.3878  -9.3639  -9.3457  -9.3395  -9.2881  -9.2772
    -9.2502  -9.2186  -9.1909  -9.1560  -9.1412  -9.1308  -9.1037  -9.0949
    -9.0480  -9.0360  -7.9448  -7.8821  -7.3105  -7.2975  -7.2708  -7.2590
    -7.2509  -7.2338  -7.1859  -7.1723  -7.1619  -7.1451  -7.1331  -7.1291
    -7.0033  -6.9939  -5.9162  -5.7325  -5.5462  -5.4978  -5.4761  -5.3967
    -5.3034  -5.2368  -5.1758  -5.1605  -5.1583  -5.1308  -5.0927  -5.0819
    -4.9692  -4.7971  -4.0369  -4.0271  -3.4985  -3.4265  -3.0532  -3.0486
    -2.9999  -2.9912  -2.9807  -2.9716  -2.9507  -2.9482  -2.8865  -2.8637
    -2.8519  -2.8455  -1.0982  -1.0668  -0.9729  -0.9621  -0.8943  -0.8810
    -0.8166  -0.7720  -0.5179  -0.4480  -0.4141  -0.3243  -0.2456  -0.1892
     0.0167   0.0835   0.0849   0.1078   0.2073   0.2593   0.2927   0.3142
     0.3526   0.3751   0.3970   0.4599   0.4776   0.4996   0.5587   0.5831
     0.6031   0.6323   0.7734   0.7897   0.8082   0.8248   0.8298   0.8410
     0.8727   0.8844   0.9232   0.9455   0.9679   0.9795   1.0050   1.0295
     1.0333   1.0487   1.0771   1.1025   1.1220   1.1409   1.1558   1.1788
     1.1952   1.2178   1.2288   1.2458   1.2784   1.2877   1.3359   1.3432
     1.3877   1.3896   1.4038   1.4238   1.4376   1.4924   1.5226   1.5699
     1.5898   1.6646   1.7567   1.8316

          k =-0.3751-0.1254 0.3792 (308306 PWs)   bands (ev):

   -18.1226 -18.0317 -17.8261 -17.8162 -17.8050 -17.7853 -17.6713 -17.6631
   -15.9244 -15.8443 -14.3855 -14.3810 -14.3762 -14.3695 -14.3662 -14.3631
   -14.3627 -14.3617 -14.3589 -14.3569 -14.3537 -14.3429 -14.3406 -14.3390
   -14.3389 -14.3340 -14.3333 -14.3319 -14.3307 -14.3279 -14.3261 -14.3258
   -14.3253 -14.3250 -14.3225 -14.3220 -14.3197 -14.3183 -14.3183 -14.3174
   -14.3172 -14.3149 -14.3110 -14.3075 -14.3005 -14.2939 -14.2912 -14.2874
   -14.2810 -14.2781 -10.7931 -10.7878 -10.7721 -10.7448 -10.7152 -10.7101
    -9.8334  -9.7984  -9.7056  -9.6940  -9.6558  -9.6130  -9.5506  -9.5363
    -9.5005  -9.4883  -9.3604  -9.3510  -9.3007  -9.2894  -9.2704  -9.2596
    -9.2353  -9.2174  -9.1850  -9.1759  -9.1716  -9.1505  -9.1052  -9.0988
    -9.0498  -9.0406  -7.9450  -7.8823  -7.3105  -7.2940  -7.2678  -7.2602
    -7.2504  -7.2340  -7.1854  -7.1720  -7.1660  -7.1498  -7.1302  -7.1274
    -7.0036  -6.9939  -5.7857  -5.6124  -5.5830  -5.5342  -5.4844  -5.3952
    -5.3509  -5.2059  -5.1789  -5.1674  -5.1517  -5.1372  -5.1148  -5.0916
    -5.0750  -4.9543  -4.0370  -4.0271  -3.4982  -3.4261  -3.0523  -3.0485
    -2.9921  -2.9882  -2.9863  -2.9761  -2.9500  -2.9474  -2.8867  -2.8638
    -2.8518  -2.8454  -0.9448  -0.9226  -0.8558  -0.8360  -0.6440  -0.6386
    -0.5703  -0.5140  -0.4762  -0.4648  -0.3702  -0.3621  -0.2599  -0.2285
     0.0065   0.0468   0.0696   0.0790   0.1220   0.1640   0.1935   0.2045
     0.2270   0.2537   0.3042   0.3260   0.4151   0.4723   0.5501   0.5779
     0.6153   0.6229   0.6880   0.6946   0.7265   0.7303   0.7623   0.7676
     0.8273   0.8314   0.8519   0.8542   0.9144   0.9521   1.0104   1.0276
     1.0583   1.0837   1.0900   1.1159   1.1240   1.1493   1.2109   1.2141
     1.2341   1.2424   1.2461   1.2580   1.2878   1.2903   1.3103   1.3153
     1.3222   1.3490   1.3791   1.3865   1.4172   1.4212   1.4740   1.4807
     1.5593   1.5812   1.6430   1.6513

          k =-0.3751 0.1254-0.3792 (308306 PWs)   bands (ev):

   -18.1226 -18.0317 -17.8261 -17.8162 -17.8050 -17.7853 -17.6713 -17.6631
   -15.9244 -15.8443 -14.3855 -14.3810 -14.3762 -14.3695 -14.3662 -14.3631
   -14.3627 -14.3617 -14.3589 -14.3569 -14.3537 -14.3429 -14.3406 -14.3390
   -14.3389 -14.3340 -14.3333 -14.3319 -14.3307 -14.3279 -14.3261 -14.3258
   -14.3253 -14.3250 -14.3225 -14.3220 -14.3197 -14.3183 -14.3183 -14.3174
   -14.3172 -14.3149 -14.3110 -14.3075 -14.3005 -14.2939 -14.2912 -14.2874
   -14.2810 -14.2781 -10.7936 -10.7880 -10.7717 -10.7446 -10.7152 -10.7100
    -9.8347  -9.8007  -9.7119  -9.6783  -9.6544  -9.6175  -9.5542  -9.5362
    -9.4981  -9.4905  -9.3579  -9.3537  -9.3013  -9.2899  -9.2684  -9.2616
    -9.2363  -9.2114  -9.1839  -9.1821  -9.1699  -9.1476  -9.1083  -9.1019
    -9.0478  -9.0391  -7.9450  -7.8823  -7.3105  -7.2940  -7.2678  -7.2602
    -7.2504  -7.2340  -7.1855  -7.1720  -7.1660  -7.1497  -7.1303  -7.1274
    -7.0036  -6.9939  -5.7858  -5.6062  -5.5883  -5.5336  -5.4851  -5.3978
    -5.3494  -5.2148  -5.1858  -5.1639  -5.1538  -5.1274  -5.1133  -5.0896
    -5.0685  -4.9590  -4.0370  -4.0271  -3.4982  -3.4261  -3.0526  -3.0484
    -2.9925  -2.9882  -2.9861  -2.9762  -2.9503  -2.9470  -2.8868  -2.8637
    -2.8518  -2.8452  -0.9578  -0.9261  -0.8643  -0.8327  -0.6751  -0.6312
    -0.5458  -0.5008  -0.4568  -0.4421  -0.3595  -0.3527  -0.2581  -0.2324
    -0.0252   0.0278   0.0501   0.0897   0.1244   0.1396   0.1937   0.2036
     0.2399   0.2503   0.3194   0.3261   0.4407   0.4520   0.5375   0.5643
     0.6129   0.6504   0.6636   0.7001   0.7192   0.7314   0.7620   0.7732
     0.8008   0.8234   0.8519   0.8547   0.9614   0.9903   1.0105   1.0347
     1.0461   1.0737   1.0820   1.1128   1.1593   1.1654   1.1793   1.1855
     1.2306   1.2479   1.2571   1.2625   1.2771   1.2866   1.2947   1.3146
     1.3306   1.3601   1.3666   1.3805   1.4006   1.4173   1.4665   1.4805
     1.5550   1.5793   1.6725   1.6832

          k = 0.3751-0.1254-0.3792 (308306 PWs)   bands (ev):

   -18.1226 -18.0317 -17.8261 -17.8162 -17.8050 -17.7853 -17.6713 -17.6631
   -15.9244 -15.8443 -14.3855 -14.3810 -14.3762 -14.3695 -14.3662 -14.3631
   -14.3627 -14.3617 -14.3589 -14.3569 -14.3537 -14.3429 -14.3406 -14.3390
   -14.3389 -14.3340 -14.3333 -14.3319 -14.3307 -14.3279 -14.3261 -14.3258
   -14.3253 -14.3250 -14.3225 -14.3220 -14.3197 -14.3183 -14.3183 -14.3174
   -14.3172 -14.3149 -14.3110 -14.3075 -14.3005 -14.2939 -14.2912 -14.2874
   -14.2810 -14.2781 -10.7936 -10.7880 -10.7717 -10.7446 -10.7151 -10.7100
    -9.8358  -9.7987  -9.7044  -9.6913  -9.6548  -9.6098  -9.5510  -9.5444
    -9.4970  -9.4911  -9.3570  -9.3448  -9.3057  -9.2959  -9.2648  -9.2606
    -9.2389  -9.2136  -9.1861  -9.1764  -9.1712  -9.1465  -9.1108  -9.1002
    -9.0459  -9.0407  -7.9450  -7.8823  -7.3105  -7.2940  -7.2679  -7.2602
    -7.2504  -7.2340  -7.1855  -7.1719  -7.1661  -7.1498  -7.1303  -7.1274
    -7.0035  -6.9939  -5.7845  -5.6119  -5.5842  -5.5332  -5.4833  -5.4001
    -5.3542  -5.2031  -5.1852  -5.1628  -5.1528  -5.1355  -5.1123  -5.0900
    -5.0724  -4.9569  -4.0370  -4.0271  -3.4982  -3.4261  -3.0523  -3.0486
    -2.9954  -2.9886  -2.9843  -2.9747  -2.9499  -2.9473  -2.8868  -2.8639
    -2.8517  -2.8454  -0.9702  -0.9226  -0.8765  -0.8279  -0.6402  -0.6132
    -0.5560  -0.5052  -0.4677  -0.4490  -0.3722  -0.3492  -0.2613  -0.2242
    -0.0038   0.0346   0.0471   0.0796   0.1071   0.1362   0.1961   0.2034
     0.2427   0.2473   0.3121   0.3213   0.4307   0.4639   0.5348   0.5744
     0.6356   0.6387   0.6689   0.6940   0.7192   0.7253   0.7682   0.7764
     0.7989   0.8172   0.8447   0.8470   0.9853   0.9950   1.0134   1.0203
     1.0630   1.0745   1.0932   1.1108   1.1428   1.1475   1.1916   1.2017
     1.2258   1.2317   1.2524   1.2583   1.2711   1.2842   1.3056   1.3152
     1.3401   1.3558   1.3728   1.3731   1.3971   1.4079   1.4613   1.4728
     1.5598   1.5957   1.6706   1.6927

          k =-0.3751-0.3761 0.1264 (308400 PWs)   bands (ev):

   -18.1226 -18.0317 -17.8261 -17.8162 -17.8050 -17.7853 -17.6713 -17.6631
   -15.9244 -15.8443 -14.3867 -14.3842 -14.3727 -14.3693 -14.3646 -14.3632
   -14.3629 -14.3617 -14.3580 -14.3570 -14.3554 -14.3434 -14.3406 -14.3389
   -14.3383 -14.3340 -14.3333 -14.3319 -14.3307 -14.3272 -14.3263 -14.3258
   -14.3254 -14.3250 -14.3225 -14.3220 -14.3197 -14.3183 -14.3183 -14.3174
   -14.3172 -14.3151 -14.3110 -14.3075 -14.3005 -14.2939 -14.2912 -14.2874
[...]
     1.5956   1.6093   1.6466   1.6622

          k =-0.3777 0.3788-0.3760 (308354 PWs)   bands (ev):

   -18.0386 -17.9986 -17.7459 -17.7058 -17.7033 -17.6886 -17.6819 -17.6140
   -15.8877 -15.8403 -14.3391 -14.3369 -14.3312 -14.3306 -14.3286 -14.3258
   -14.3231 -14.3168 -14.3157 -14.3128 -14.3112 -14.3086 -14.3076 -14.3043
   -14.2996 -14.2994 -14.2928 -14.2919 -14.2910 -14.2904 -14.2900 -14.2885
   -14.2883 -14.2875 -14.2867 -14.2861 -14.2848 -14.2841 -14.2832 -14.2828
   -14.2786 -14.2781 -14.2764 -14.2726 -14.2681 -14.2663 -14.2633 -14.2616
   -14.2571 -14.2555 -10.7060 -10.6740 -10.6720 -10.6587 -10.6409 -10.6373
    -9.8634  -9.8256  -9.6328  -9.6129  -9.5753  -9.5557  -9.5253  -9.5221
    -9.4665  -9.4591  -9.3106  -9.3012  -9.2570  -9.2491  -9.2287  -9.2198
    -9.1765  -9.1611  -9.1426  -9.1345  -9.0865  -9.0768  -9.0607  -9.0586
    -8.9985  -8.9893  -7.8724  -7.8252  -7.2834  -7.2379  -7.2072  -7.2035
    -7.1745  -7.1612  -7.1499  -7.1261  -7.1142  -7.0974  -7.0296  -7.0245
    -7.0193  -6.9652  -5.6038  -5.5451  -5.5033  -5.4577  -5.4214  -5.3964
    -5.2774  -5.2631  -5.2222  -5.0889  -5.0414  -5.0019  -4.9924  -4.9835
    -4.9527  -4.9404  -3.9566  -3.9173  -3.4322  -3.4037  -2.9809  -2.9691
    -2.9429  -2.9389  -2.9339  -2.9310  -2.9252  -2.9189  -2.9142  -2.9054
    -2.8809  -2.8714  -0.6896  -0.6569  -0.5888  -0.5674  -0.5127  -0.4878
    -0.4065  -0.3907  -0.3543  -0.3232  -0.2502  -0.2248  -0.1346  -0.1272
    -0.0815  -0.0231   0.0656   0.0799   0.0909   0.1078   0.1394   0.1945
     0.2278   0.2581   0.3078   0.3337   0.5275   0.5344   0.5544   0.5556
     0.5991   0.6331   0.6478   0.6856   0.7165   0.7208   0.7568   0.7672
     0.7917   0.8304   0.8764   0.8815   0.9440   0.9553   0.9732   1.0058
     1.0360   1.0491   1.0922   1.0994   1.1616   1.1702   1.1931   1.2156
     1.2528   1.2600   1.2818   1.2856   1.2990   1.3093   1.3266   1.3403
     1.3824   1.4066   1.4165   1.4336   1.4996   1.5189   1.5449   1.5575
     1.5829   1.5998   1.6858   1.6976

          k = 0.3777-0.3788-0.3760 (308354 PWs)   bands (ev):

   -18.0386 -17.9986 -17.7459 -17.7058 -17.7033 -17.6886 -17.6819 -17.6140
   -15.8877 -15.8403 -14.3391 -14.3369 -14.3312 -14.3306 -14.3286 -14.3258
   -14.3231 -14.3168 -14.3157 -14.3128 -14.3112 -14.3086 -14.3076 -14.3043
   -14.2996 -14.2994 -14.2928 -14.2919 -14.2910 -14.2904 -14.2900 -14.2885
   -14.2883 -14.2875 -14.2867 -14.2861 -14.2848 -14.2841 -14.2832 -14.2828
   -14.2786 -14.2781 -14.2764 -14.2726 -14.2681 -14.2663 -14.2633 -14.2616
   -14.2571 -14.2555 -10.7060 -10.6737 -10.6723 -10.6587 -10.6409 -10.6373
    -9.8633  -9.8255  -9.6354  -9.6092  -9.5794  -9.5445  -9.5308  -9.5276
    -9.4651  -9.4584  -9.3084  -9.2972  -9.2622  -9.2490  -9.2278  -9.2219
    -9.1775  -9.1625  -9.1409  -9.1334  -9.0868  -9.0762  -9.0618  -9.0569
    -8.9992  -8.9891  -7.8724  -7.8252  -7.2835  -7.2379  -7.2072  -7.2034
    -7.1745  -7.1612  -7.1501  -7.1260  -7.1143  -7.0974  -7.0291  -7.0252
    -7.0189  -6.9652  -5.6023  -5.5461  -5.5048  -5.4584  -5.4178  -5.3981
    -5.2832  -5.2601  -5.2190  -5.0892  -5.0415  -5.0018  -4.9927  -4.9838
    -4.9524  -4.9403  -3.9566  -3.9173  -3.4322  -3.4038  -2.9808  -2.9690
    -2.9445  -2.9386  -2.9336  -2.9332  -2.9258  -2.9177  -2.9117  -2.9053
    -2.8809  -2.8713  -0.7164  -0.6461  -0.5905  -0.5579  -0.5051  -0.4760
    -0.4007  -0.3905  -0.3575  -0.3318  -0.2324  -0.2154  -0.1413  -0.1318
    -0.0924  -0.0350   0.0498   0.0655   0.0916   0.1061   0.1522   0.1916
     0.2537   0.2602   0.3054   0.3271   0.5161   0.5293   0.5455   0.5651
     0.6192   0.6281   0.6592   0.6775   0.7223   0.7263   0.7470   0.7762
     0.7975   0.8257   0.8656   0.8781   0.9590   0.9637   0.9807   0.9893
     1.0346   1.0425   1.0834   1.1131   1.1651   1.1731   1.1940   1.2070
     1.2418   1.2626   1.2707   1.2812   1.3015   1.3093   1.3383   1.3408
     1.3817   1.4013   1.4182   1.4392   1.4977   1.5170   1.5437   1.5504
     1.5910   1.6041   1.6857   1.6997

     highest occupied level (ev):     2.0445

!    total energy              =  -16545.18812302 Ry
     Harris-Foulkes estimate   =  -16545.18812303 Ry
     estimated scf accuracy    <       0.00000001 Ry

     total all-electron energy =   -677464.454993 Ry

     The total energy is the sum of the following terms:

     one-electron contribution =    -876.75550869 Ry
     hartree contribution      =     626.09659316 Ry
     xc contribution           =    -765.59905664 Ry
     ewald contribution        =   -1158.16556604 Ry
     DFT-D3 Dispersion         =      -0.62001013 Ry
     one-center paw contrib.   =  -14370.14457468 Ry

     convergence has been achieved in   9 iterations

     Forces acting on atoms (cartesian axes, Ry/au):

     atom    1 type  1   force =    -0.00013810    0.00300800    0.00078523
     atom    2 type  1   force =    -0.00128657    0.00201688    0.00221148
     atom    3 type  1   force =     0.00016409   -0.00076292    0.00063185
     atom    4 type  1   force =     0.00077756    0.00027395   -0.00024097
     atom    5 type  1   force =    -0.00090675    0.00071206    0.00027476
     atom    6 type  1   force =     0.00148584   -0.00109692    0.00098843
     atom    7 type  1   force =    -0.00026393    0.00330991    0.00076838
     atom    8 type  1   force =    -0.00177589    0.00223261    0.00015541
     atom    9 type  2   force =     0.00267066   -0.00051052    0.00166528
     atom   10 type  2   force =    -0.00346390    0.00011718    0.00097711
     atom   11 type  2   force =    -0.00229139   -0.00140329   -0.00259413
     atom   12 type  2   force =     0.00063698   -0.00125847    0.00012824
     atom   13 type  2   force =    -0.00279037    0.00055551    0.00007947
     atom   14 type  2   force =     0.00120303   -0.00155238   -0.00198312
     atom   15 type  2   force =     0.00076458   -0.00128667   -0.00004457
     atom   16 type  2   force =    -0.00123062    0.00119772    0.00096664
     atom   17 type  2   force =     0.00118020   -0.00156147   -0.00091554
     atom   18 type  2   force =     0.00050679   -0.00250490    0.00133918
     atom   19 type  2   force =    -0.00016980    0.00141234    0.00056911
     atom   20 type  2   force =     0.00174989    0.00046678    0.00011224
     atom   21 type  2   force =    -0.00103223   -0.00206491    0.00151441
     atom   22 type  2   force =     0.00004302    0.00017449    0.00049780
     atom   23 type  2   force =     0.00132317    0.00105882   -0.00098332
     atom   24 type  2   force =     0.00154911   -0.00154451    0.00037430
     atom   25 type  2   force =    -0.00127346    0.00134695    0.00108843
     atom   26 type  2   force =     0.00074594   -0.00158814   -0.00097283
     atom   27 type  2   force =     0.00185348   -0.00174935    0.00007902
     atom   28 type  2   force =    -0.00280645   -0.00046808    0.00033833
     atom   29 type  2   force =     0.00109967   -0.00132565   -0.00100182
     atom   30 type  2   force =     0.00107467    0.00003256    0.00143303
     atom   31 type  2   force =    -0.00338661    0.00075441    0.00095551
     atom   32 type  2   force =    -0.00270304   -0.00193666   -0.00123883
     atom   33 type  3   force =    -0.00310174    0.00220813    0.00035260
     atom   34 type  3   force =    -0.00206833   -0.00175231    0.00185396
     atom   35 type  3   force =     0.00020046    0.00004783    0.00194073
     atom   36 type  3   force =    -0.00039337   -0.00106258   -0.00068677
     atom   37 type  3   force =     0.00151480    0.00008336   -0.00035512
     atom   38 type  3   force =    -0.00123054   -0.00121665    0.00117018
     atom   39 type  3   force =     0.00037405    0.00061116    0.00143445
     atom   40 type  3   force =    -0.00454166    0.00684242   -0.00019602
     atom   41 type  4   force =     0.00166831   -0.00008226   -0.00076779
     atom   42 type  4   force =     0.00344964   -0.00344372    0.00006910
     atom   43 type  4   force =    -0.00127943   -0.00100130   -0.00067393
     atom   44 type  4   force =     0.00043453   -0.00018595   -0.00125092
     atom   45 type  4   force =    -0.00020254    0.00159786   -0.00149205
     atom   46 type  4   force =    -0.00233064   -0.00068818   -0.00134799
     atom   47 type  4   force =     0.00205694    0.00156529   -0.00070070
     atom   48 type  4   force =    -0.00559478   -0.00399075    0.00035119
     atom   49 type  4   force =    -0.00140514   -0.00054652   -0.00108194
     atom   50 type  4   force =     0.00580141   -0.00405259    0.00102838
     atom   51 type  5   force =    -0.00028875    0.00717053   -0.00016551
     atom   52 type  5   force =    -0.00170604   -0.00318311    0.00055774
     atom   53 type  5   force =    -0.00177016    0.00242185    0.00013570
     atom   54 type  5   force =    -0.00040584   -0.00410786    0.00006683
     atom   55 type  5   force =     0.00084094    0.00295606   -0.00003655
     atom   56 type  5   force =    -0.00017947   -0.00135073    0.00165343
     atom   57 type  5   force =     0.00067414   -0.00178124   -0.00321126
     atom   58 type  5   force =     0.00008333    0.00348077   -0.00130745
     atom   59 type  5   force =     0.00066722   -0.00011179    0.00633000
     atom   60 type  5   force =    -0.00024593    0.00398399   -0.00442713
     atom   61 type  5   force =     0.00398990   -0.00024287   -0.00102944
     atom   62 type  5   force =    -0.00065550   -0.00260393    0.00003554
     atom   63 type  5   force =    -0.00041736   -0.00267674   -0.00231603
     atom   64 type  5   force =     0.00005996    0.00162077    0.00015540
     atom   65 type  5   force =    -0.00000243   -0.00181324    0.00616589
     atom   66 type  5   force =    -0.00064511    0.00284066   -0.00357802
     atom   67 type  5   force =     0.00271977    0.00050796   -0.00062108
     atom   68 type  5   force =     0.00211679   -0.00239886    0.00017428
     atom   69 type  5   force =    -0.00065378   -0.00096924   -0.00207119
     atom   70 type  5   force =    -0.00195937    0.00155848    0.00045922
     atom   71 type  5   force =     0.00003811    0.00161434    0.00377765
     atom   72 type  5   force =     0.00046367    0.00212973   -0.00384779
     atom   73 type  5   force =     0.00184476   -0.00361906    0.00033721
     atom   74 type  5   force =     0.00070416   -0.00176733   -0.00181197
     atom   75 type  5   force =    -0.00133381    0.00044069   -0.00037619
     atom   76 type  5   force =    -0.00056178   -0.00085650    0.00038062
     atom   77 type  5   force =     0.00105362    0.00093166    0.00209040
     atom   78 type  5   force =     0.00173255    0.00168907   -0.00242474
     atom   79 type  5   force =     0.00058784   -0.00113471    0.00079114
     atom   80 type  5   force =    -0.00024258   -0.00044486    0.00360312
     atom   81 type  5   force =     0.00087858   -0.00381913   -0.00395976
     atom   82 type  5   force =    -0.00058712    0.00053812   -0.00094959
     atom   83 type  5   force =     0.00152731   -0.00133190    0.00691106
     atom   84 type  5   force =    -0.00427058    0.00407184   -0.00374948
     atom   85 type  5   force =     0.00369651   -0.00170662   -0.00226918
     atom   86 type  5   force =     0.00001898   -0.00154194   -0.00099058
     atom   87 type  5   force =    -0.00235981    0.00022805   -0.00267220
     atom   88 type  5   force =     0.00262512    0.00055326    0.00001752
     atom   89 type  5   force =     0.00135432    0.00055553    0.00254252
     atom   90 type  5   force =     0.00187275    0.00284359   -0.00274850
     atom   91 type  5   force =     0.00325420    0.00192827    0.00067647
     atom   92 type  5   force =     0.00024576    0.00102221    0.00044635
     atom   93 type  5   force =    -0.00109803   -0.00000503    0.00077163
     atom   94 type  5   force =     0.00267633    0.00041539   -0.00009069
     atom   95 type  5   force =    -0.00017373    0.00156227   -0.00040211
     atom   96 type  5   force =    -0.00283098   -0.00058697   -0.00062915

     Total force =     0.033802     Total SCF correction =     0.000501


     Computing stress (Cartesian axis) and pressure

          total   stress  (Ry/bohr**3)                   (kbar)     P=   -1.46
  -0.00000861   0.00001527  -0.00000092         -1.27      2.25     -0.14
   0.00001527  -0.00000349   0.00000188          2.25     -0.51      0.28
  -0.00000092   0.00000188  -0.00001774         -0.14      0.28     -2.61


     BFGS Geometry Optimization

     number of scf cycles    =   1
     number of bfgs steps    =   0

     enthalpy new            =  -16545.1881230213 Ry

     new trust radius        =       0.0104238911 bohr
     new conv_thr            =       0.0000000223 Ry

     new unit-cell volume =  13804.70423 a.u.^3 (  2045.64609 Ang^3 )
     density =      4.05210 g/cm^3

CELL_PARAMETERS (alat= 24.15259000)
   0.992754306   0.000000000   0.000000000
   0.000000000   0.989926698   0.000000000
   0.000000000   0.000000000   0.996990827

ATOMIC_POSITIONS (crystal)
Pb       0.012200659  -0.010468734   0.001237663
Pb       0.007752764  -0.008450036   0.499396782
Pb      -0.001838766   0.494117208   0.000929271
Pb       0.005102539   0.489926673   0.500332434
Pb       0.506193669  -0.010006944  -0.000005488
Pb       0.497778012  -0.005966565   0.500625415
Pb       0.507001262   0.490896008   0.001056474
Pb       0.512548388   0.490783743   0.502491269
I        0.258662536   0.050574509  -0.001699168
I       -0.008496366   0.245176365  -0.022484822
I        0.005439064  -0.005809022   0.252760379
I        0.256927002   0.061745287   0.499580174
I       -0.011087148   0.244922596   0.519573520
I        0.019009638  -0.027847441   0.752702967
I        0.256685173   0.480047857   0.016238677
I        0.069731590   0.743906470   0.005386763
I       -0.008690549   0.497989755   0.250813669
I        0.259515465   0.488744959   0.471362935
I        0.059618649   0.745241415   0.505253975
I        0.010016177   0.494250119   0.750734347
I        0.760380128  -0.012905447  -0.029013949
I        0.561653239   0.246402217   0.005675309
I        0.512445134  -0.007593762   0.251106093
I        0.756823601  -0.016506372   0.516105219
I        0.567034813   0.244159890   0.505304165
I        0.492443005  -0.001972420   0.751026626
I        0.756182870   0.563325719   0.001217031
I        0.486496258   0.746062955   0.017953604
I        0.518964441   0.472708927   0.252491804
I        0.759058274   0.549597308   0.499566304
I        0.492917153   0.744752294   0.478504407
I        0.506881179   0.494789869   0.752579922
C        0.253878269   0.284594060   0.247387803
C        0.281603773   0.276896800   0.748978420
C        0.278097042   0.785268933   0.250327106
C        0.291373583   0.780669843   0.752766453
C        0.791163549   0.280485581   0.253816770
C        0.778119801   0.284876145   0.749021674
C        0.782014870   0.776976975   0.249415964
C        0.753426267   0.785053624   0.747211057
N        0.161697541   0.237981873   0.249544603
N        0.346106878   0.237182929   0.249816066
N        0.195030761   0.197041623   0.760876831
N        0.205643669   0.692360647   0.262970083
N        0.202161776   0.703615171   0.759237424
N        0.701707932   0.203978632   0.260760988
N        0.706019848   0.191685004   0.762108832
N        0.697532722   0.695314017   0.259827287
N        0.661162987   0.738208800   0.750383809
N        0.845814322   0.737308216   0.749128546
H        0.254634456   0.370488947   0.243033921
H        0.151265684   0.157888742   0.253038991
H        0.095572955   0.283680605   0.247032571
H        0.355991662   0.157310957   0.253578951
H        0.412203893   0.283207423   0.247953994
H        0.186402427   0.152876205   0.692919736
H        0.123700139   0.232255548   0.778283229
H        0.210743753   0.144898286   0.822573639
H        0.283208146   0.304150391   0.667324257
H        0.355881593   0.238304246   0.770061269
H        0.265630822   0.342587897   0.802546790
H        0.193933093   0.653660394   0.192483503
H        0.132875929   0.715852181   0.291014942
H        0.233608624   0.637499538   0.317309333
H        0.267988558   0.817935762   0.171340870
H        0.358969601   0.758203317   0.262289052
H        0.257421454   0.843960255   0.309868445
H        0.148904967   0.715178437   0.698269526
H        0.161522615   0.711871884   0.830327563
H        0.227734085   0.626410636   0.754799502
H        0.333760472   0.767272975   0.679080180
H        0.342804313   0.767825157   0.820658780
H        0.258424224   0.860670595   0.754545106
H        0.648057834   0.216155591   0.200371302
H        0.661604471   0.211790336   0.332156849
H        0.726682856   0.126688427   0.255603618
H        0.833350718   0.266634584   0.180168106
H        0.842583374   0.267839727   0.321641365
H        0.758675091   0.360613245   0.255081302
H        0.696154042   0.151007353   0.692296241
H        0.632586912   0.215358764   0.788236099
H        0.733466163   0.138592992   0.818379765
H        0.766076741   0.317899217   0.670440316
H        0.859365352   0.257867165   0.759193123
H        0.758146063   0.343165652   0.809317309
H        0.696684235   0.645773506   0.194903601
H        0.624105333   0.729226836   0.267281548
H        0.708843398   0.648799833   0.326542263
H        0.778673511   0.810133427   0.170095515
H        0.857744392   0.738142032   0.263444486
H        0.767967229   0.838237005   0.308322140
H        0.754061787   0.870835215   0.742216735
H        0.650893303   0.658087443   0.753993405
H        0.594975286   0.783733597   0.748440162
H        0.855407078   0.657425475   0.753662663
H        0.911805832   0.783465987   0.747506452



     Writing output data file 0.25FA2_vcrelax3.save/
     NEW-OLD atomic charge density approx. for the potential
     extrapolated charge  407.69547, renormalised to  408.00000

     total cpu time spent up to now is   590634.0 secs

     Self-consistent Calculation

     iteration #  1     ecut=   120.00 Ry     beta= 0.70
     Davidson diagonalization with overlap
     ethr =  1.00E-06,  avg # of iterations =  3.6

     total cpu time spent up to now is   593445.8 secs

     total energy              =  -16545.18822036 Ry
     Harris-Foulkes estimate   =  -16545.67267218 Ry
     estimated scf accuracy    <       0.00065688 Ry

     iteration #  2     ecut=   120.00 Ry     beta= 0.70
     Davidson diagonalization with overlap
     ethr =  1.61E-07,  avg # of iterations =  4.0

     total cpu time spent up to now is   596782.0 secs

     total energy              =  -16545.18889323 Ry
     Harris-Foulkes estimate   =  -16545.18945178 Ry
     estimated scf accuracy    <       0.00128916 Ry

     iteration #  3     ecut=   120.00 Ry     beta= 0.70
     Davidson diagonalization with overlap
     ethr =  1.61E-07,  avg # of iterations =  3.0

     total cpu time spent up to now is   598970.3 secs

     total energy              =  -16545.18898857 Ry
     Harris-Foulkes estimate   =  -16545.18903414 Ry
     estimated scf accuracy    <       0.00012505 Ry

     iteration #  4     ecut=   120.00 Ry     beta= 0.70
     Davidson diagonalization with overlap
     ethr =  3.06E-08,  avg # of iterations =  3.6

     total cpu time spent up to now is   600924.6 secs

     total energy              =  -16545.18898525 Ry
     Harris-Foulkes estimate   =  -16545.18900068 Ry
     estimated scf accuracy    <       0.00004062 Ry

     iteration #  5     ecut=   120.00 Ry     beta= 0.70
     Davidson diagonalization with overlap
     ethr =  9.96E-09,  avg # of iterations =  4.0

     total cpu time spent up to now is   602971.9 secs

     total energy              =  -16545.18899086 Ry
     Harris-Foulkes estimate   =  -16545.18899268 Ry
     estimated scf accuracy    <       0.00000533 Ry

     iteration #  6     ecut=   120.00 Ry     beta= 0.70
     Davidson diagonalization with overlap
