
     Program PWSCF v.6.4 starts on  7May2020 at 13:15:53 

     This program is part of the open-source Quantum ESPRESSO suite
     for quantum simulation of materials; please cite
         "P. Giannozzi et al., J. Phys.:Condens. Matter 21 395502 (2009);
         "P. Giannozzi et al., J. Phys.:Condens. Matter 29 465901 (2017);
          URL http://www.quantum-espresso.org", 
     in publications or presentations arising from this work. More details at
     http://www.quantum-espresso.org/quote

     Parallel version (MPI), running on    32 processors

     MPI processes distributed on     1 nodes
     K-points division:     npool     =       4
     R & G space division:  proc/nbgrp/npool/nimage =       8
     Waiting for input...
     Reading input from standard input

     Current dimensions of program PWSCF are:
     Max number of different atomic species (ntypx) = 10
     Max number of k-points (npk) =  40000
     Max angular momentum in pseudopotentials (lmaxx) =  3
               file Pb.pbe-dn-kjpaw_psl.1.0.0.UPF: wavefunction(s)  6S 6P 5D renormalized
               file I.pbe-n-kjpaw_psl.1.0.0.UPF: wavefunction(s)  5S renormalized
               file C.pbe-n-kjpaw_psl.1.0.0.UPF: wavefunction(s)  2S 2P renormalized
               file N.pbe-n-kjpaw_psl.1.0.0.UPF: wavefunction(s)  2S renormalized
               file H.pbe-kjpaw_psl.1.0.0.UPF: wavefunction(s)  1S renormalized

     --------------------------------------------
     Parameters for DFT-D3 Dispersion Correction:
     --------------------------------------------
       Reference C6 values for interpolation: 

         atom   Coordination number   C6
         H          0.912             6.05
         H          0.000            15.18
         C          0.000            98.23
         C          0.987            86.49
         C          1.998            58.72
         C          2.999            51.56
         C          3.984            36.41
         N          0.000            50.54
         N          0.994            44.25
         N          2.014            39.35
         N          2.990            31.16
         I          0.000           703.93
         I          0.997           717.00
         Pb         0.000          1477.63
         Pb         0.938          1266.00
         Pb         1.936          1088.91
         Pb         2.908          1048.37
         Pb         3.910           910.57

       Values used:

         atom   Coordination number  R0_AB[au]  C6      C8
         Pb         4.870            4.041    910.57 144158.29
         Pb         4.874            4.041    910.57 144158.28
         Pb         4.875            4.041    910.57 144158.28
         Pb         4.895            4.041    910.57 144158.26
         Pb         4.896            4.041    910.57 144158.25
         Pb         4.889            4.041    910.57 144158.26
         Pb         4.881            4.041    910.57 144158.27
         Pb         4.868            4.041    910.57 144158.29
         I          1.892            3.532    717.00  65855.99
         I          1.968            3.532    717.00  65856.00
         I          1.935            3.532    717.00  65855.99
         I          1.890            3.532    717.00  65855.99
         I          1.963            3.532    717.00  65856.00
         I          1.932            3.532    717.00  65855.99
         I          1.959            3.532    717.00  65856.00
         I          1.897            3.532    717.00  65855.99
         I          1.936            3.532    717.00  65855.99
         I          1.959            3.532    717.00  65856.00
         I          1.911            3.532    717.00  65855.99
         I          1.947            3.532    717.00  65855.99
         I          1.955            3.532    717.00  65856.00
         I          1.915            3.532    717.00  65855.99
         I          1.949            3.532    717.00  65855.99
         I          1.961            3.532    717.00  65856.00
         I          1.911            3.532    717.00  65855.99
         I          1.937            3.532    717.00  65855.99
         I          1.884            3.532    717.00  65855.99
         I          1.956            3.532    717.00  65856.00
         I          1.927            3.532    717.00  65855.99
         I          1.889            3.532    717.00  65855.99
         I          1.966            3.532    717.00  65856.00
         I          1.940            3.532    717.00  65855.99
         C          3.053            2.750     51.13   1478.79
         C          4.044            2.750     36.58   1058.01
         C          4.022            2.750     36.61   1058.96
         C          4.021            2.750     36.62   1059.01
         C          4.021            2.750     36.62   1059.01
         C          4.021            2.750     36.62   1058.98
         C          4.042            2.750     36.59   1058.12
         C          3.052            2.750     51.13   1478.84
         N          3.094            2.478     31.24    689.13
         N          3.089            2.478     31.24    689.20
         N          4.031            2.478     31.16    687.49
         N          4.034            2.478     31.16    687.49
         N          4.033            2.478     31.16    687.49
         N          4.033            2.478     31.16    687.49
         N          4.034            2.478     31.16    687.49
         N          4.031            2.478     31.16    687.49
         N          3.092            2.478     31.24    689.16
         N          3.087            2.478     31.24    689.22
         H          1.011            2.062      6.17     74.61
         H          1.040            2.062      6.15     74.34
         H          1.020            2.062      6.16     74.51
         H          1.029            2.062      6.16     74.43
         H          1.021            2.062      6.16     74.50
         H          1.019            2.062      6.16     74.52
         H          1.019            2.062      6.16     74.52
         H          1.018            2.062      6.17     74.53
         H          1.008            2.062      6.17     74.63
         H          1.009            2.062      6.17     74.63
         H          1.011            2.062      6.17     74.60
         H          1.019            2.062      6.16     74.52
         H          1.018            2.062      6.17     74.53
         H          1.020            2.062      6.16     74.52
         H          1.008            2.062      6.17     74.63
         H          1.009            2.062      6.17     74.63
         H          1.006            2.062      6.18     74.65
         H          1.020            2.062      6.16     74.51
         H          1.021            2.062      6.16     74.50
         H          1.017            2.062      6.17     74.54
         H          1.007            2.062      6.17     74.64
         H          1.006            2.062      6.18     74.65
         H          1.007            2.062      6.17     74.64
         H          1.020            2.062      6.16     74.51
         H          1.020            2.062      6.16     74.51
         H          1.018            2.062      6.17     74.53
         H          1.007            2.062      6.17     74.65
         H          1.006            2.062      6.18     74.66
         H          1.007            2.062      6.17     74.64
         H          1.021            2.062      6.16     74.51
         H          1.017            2.062      6.17     74.54
         H          1.019            2.062      6.16     74.52
         H          1.007            2.062      6.17     74.64
         H          1.009            2.062      6.17     74.62
         H          1.006            2.062      6.18     74.66
         H          1.019            2.062      6.17     74.52
         H          1.019            2.062      6.16     74.52
         H          1.018            2.062      6.17     74.53
         H          1.008            2.062      6.17     74.63
         H          1.008            2.062      6.17     74.63
         H          1.010            2.062      6.17     74.61
         H          1.010            2.062      6.17     74.61
         H          1.036            2.062      6.15     74.37
         H          1.020            2.062      6.16     74.51
         H          1.027            2.062      6.16     74.45
         H          1.021            2.062      6.16     74.50

         Molecular C6 ( Ry / a.u.^6 ) =   1215082.97


     Subspace diagonalization in iterative solution of the eigenvalue problem:
     a serial algorithm will be used


     Parallelization info
     --------------------
     sticks:   dense  smooth     PW     G-vecs:    dense   smooth      PW
     Min        2788    2788    718               312733   312733   40939
     Max        2790    2790    720               312734   312734   40941
     Sum       22309   22309   5753              2501869  2501869  327517



     bravais-lattice index     =            1
     lattice parameter (alat)  =      24.1526  a.u.
     unit-cell volume          =   14089.3555 (a.u.)^3
     number of atoms/cell      =           96
     number of atomic types    =            5
     number of electrons       =       408.00
     number of Kohn-Sham states=          204
     kinetic-energy cutoff     =     120.0000  Ry
     charge density cutoff     =     480.0000  Ry
     convergence threshold     =      1.0E-07
     mixing beta               =       0.7000
     number of iterations used =            8  plain     mixing
     Exchange-correlation      = SLA PW PBX PBC ( 1  4  3  4 0 0)
     nstep                     =          150


     celldm(1)=  24.152590  celldm(2)=   0.000000  celldm(3)=   0.000000
     celldm(4)=   0.000000  celldm(5)=   0.000000  celldm(6)=   0.000000

     crystal axes: (cart. coord. in units of alat)
               a(1) = (   1.000000   0.000000   0.000000 )  
               a(2) = (   0.000000   1.000000   0.000000 )  
               a(3) = (   0.000000   0.000000   1.000000 )  

     reciprocal axes: (cart. coord. in units 2 pi/alat)
               b(1) = (  1.000000  0.000000  0.000000 )  
               b(2) = (  0.000000  1.000000  0.000000 )  
               b(3) = (  0.000000  0.000000  1.000000 )  


     PseudoPot. # 1 for Pb read from file:
     ../../Pseudopotential/Pb.pbe-dn-kjpaw_psl.1.0.0.UPF
     MD5 check sum: 684fc8fbce61a260853528575e4d9ab7
     Pseudo is Projector augmented-wave + core cor, Zval = 14.0
     Generated using "atomic" code by A. Dal Corso v.6.3
     Shape of augmentation charge: PSQ
     Using radial grid of 1281 points,  6 beta functions with: 
                l(1) =   0
                l(2) =   0
                l(3) =   1
                l(4) =   1
                l(5) =   2
                l(6) =   2
     Q(r) pseudized with 0 coefficients 


     PseudoPot. # 2 for I  read from file:
     ../../Pseudopotential/I.pbe-n-kjpaw_psl.1.0.0.UPF
     MD5 check sum: cd3d296c3308a581e1559a0c8a554cb5
     Pseudo is Projector augmented-wave + core cor, Zval =  7.0
     Generated using "atomic" code by A. Dal Corso v.6.3
     Shape of augmentation charge: PSQ
     Using radial grid of 1247 points,  6 beta functions with: 
                l(1) =   0
                l(2) =   0
                l(3) =   1
                l(4) =   1
                l(5) =   2
                l(6) =   2
     Q(r) pseudized with 0 coefficients 


     PseudoPot. # 3 for C  read from file:
     ../../Pseudopotential/C.pbe-n-kjpaw_psl.1.0.0.UPF
     MD5 check sum: 5f16ad9a65e90284d1d834d4ab3b0f7d
     Pseudo is Projector augmented-wave + core cor, Zval =  4.0
     Generated using "atomic" code by A. Dal Corso v.6.3
     Shape of augmentation charge: PSQ
     Using radial grid of 1073 points,  4 beta functions with: 
                l(1) =   0
                l(2) =   0
                l(3) =   1
                l(4) =   1
     Q(r) pseudized with 0 coefficients 


     PseudoPot. # 4 for N  read from file:
     ../../Pseudopotential/N.pbe-n-kjpaw_psl.1.0.0.UPF
     MD5 check sum: 14c48229446f9f2d411169a3abcbc3fa
     Pseudo is Projector augmented-wave + core cor, Zval =  5.0
     Generated using "atomic" code by A. Dal Corso v.6.3
     Shape of augmentation charge: PSQ
     Using radial grid of 1085 points,  4 beta functions with: 
                l(1) =   0
                l(2) =   0
                l(3) =   1
                l(4) =   1
     Q(r) pseudized with 0 coefficients 


     PseudoPot. # 5 for H  read from file:
     ../../Pseudopotential/H.pbe-kjpaw_psl.1.0.0.UPF
     MD5 check sum: d81a744832360e4a8af0b0b5b123bc2a
     Pseudo is Projector augmented-wave, Zval =  1.0
     Generated using "atomic" code by A. Dal Corso v.6.3MaX
     Shape of augmentation charge: PSQ
     Using radial grid of  929 points,  2 beta functions with: 
                l(1) =   0
                l(2) =   0
     Q(r) pseudized with 0 coefficients 


     atomic species   valence    mass     pseudopotential
        Pb            14.00   207.97600     Pb( 1.00)
        I              7.00   126.90400     I ( 1.00)
        C              4.00    12.00000     C ( 1.00)
        N              5.00    14.00300     N ( 1.00)
        H              1.00     1.00700     H ( 1.00)

     No symmetry found



   Cartesian axes

     site n.     atom                  positions (alat units)
         1           Pb  tau(   1) = (   0.0026582   0.0042098   0.0055777  )
         2           Pb  tau(   2) = (   0.0014774   0.0033001   0.5048990  )
         3           Pb  tau(   3) = (   0.0015880   0.5010619   0.0046043  )
         4           Pb  tau(   4) = (   0.0033162   0.5006505   0.5035504  )
         5           Pb  tau(   5) = (   0.5024691   0.0002305   0.0050631  )
         6           Pb  tau(   6) = (   0.5015972   0.0016826   0.5062895  )
         7           Pb  tau(   7) = (   0.5017442   0.5026529   0.0041644  )
         8           Pb  tau(   8) = (   0.5029606   0.5046930   0.5055595  )
         9           I   tau(   9) = (   0.2543609   0.0148201  -0.0023340  )
        10           I   tau(  10) = (   0.0088662   0.2519671  -0.0066162  )
        11           I   tau(  11) = (  -0.0134803  -0.0197867   0.2531088  )
        12           I   tau(  12) = (   0.2528337   0.0131482   0.5034552  )
        13           I   tau(  13) = (   0.0115518   0.2526640   0.5103123  )
        14           I   tau(  14) = (  -0.0008471  -0.0033515   0.7535414  )
        15           I   tau(  15) = (   0.2537547   0.5158218   0.0048412  )
        16           I   tau(  16) = (   0.0221270   0.7514933  -0.0061412  )
        17           I   tau(  17) = (   0.0045408   0.5033279   0.2535312  )
        18           I   tau(  18) = (   0.2542241   0.5181451   0.4963747  )
        19           I   tau(  19) = (   0.0220534   0.7518176   0.5037619  )
        20           I   tau(  20) = (   0.0276939   0.4808960   0.7532197  )
        21           I   tau(  21) = (   0.7535959   0.0171949  -0.0022270  )
        22           I   tau(  22) = (   0.5219557   0.2502397   0.0064811  )
        23           I   tau(  23) = (   0.5264921  -0.0183885   0.2545151  )
        24           I   tau(  24) = (   0.7529184   0.0199512   0.5043554  )
        25           I   tau(  25) = (   0.5210996   0.2524617   0.4970997  )
        26           I   tau(  26) = (   0.5043885   0.0034945   0.7542405  )
        27           I   tau(  27) = (   0.7535968   0.5161594   0.0036554  )
        28           I   tau(  28) = (   0.5067519   0.7508386   0.0100868  )
        29           I   tau(  29) = (   0.5010008   0.4958697   0.2549677  )
        30           I   tau(  30) = (   0.7542834   0.5142510   0.4973556  )
        31           I   tau(  31) = (   0.5106041   0.7535020   0.4944612  )
        32           I   tau(  32) = (   0.4865348   0.4773580   0.7549497  )
        33           C   tau(  33) = (   0.2509743   0.2538025   0.2551027  )
        34           C   tau(  34) = (   0.2884106   0.2881108   0.7520530  )
        35           C   tau(  35) = (   0.2889759   0.7890530   0.2521861  )
        36           C   tau(  36) = (   0.2894520   0.7889275   0.7515496  )
        37           C   tau(  37) = (   0.7894978   0.2889310   0.2520837  )
        38           C   tau(  38) = (   0.7889818   0.2890037   0.7512978  )
        39           C   tau(  39) = (   0.7884856   0.7881775   0.2524197  )
        40           C   tau(  40) = (   0.7503588   0.7543860   0.7545773  )
        41           N   tau(  41) = (   0.1594658   0.2074462   0.2551352  )
        42           N   tau(  42) = (   0.3421508   0.2070959   0.2558326  )
        43           N   tau(  43) = (   0.2047295   0.2047964   0.7524733  )
        44           N   tau(  44) = (   0.2056195   0.7054509   0.2522284  )
        45           N   tau(  45) = (   0.2062811   0.7051207   0.7525661  )
        46           N   tau(  46) = (   0.7063136   0.2051628   0.2531016  )
        47           N   tau(  47) = (   0.7055730   0.2054541   0.7523005  )
        48           N   tau(  48) = (   0.7048101   0.7048536   0.2532547  )
        49           N   tau(  49) = (   0.6589457   0.7080271   0.7546170  )
        50           N   tau(  50) = (   0.8417268   0.7074291   0.7548769  )
        51           H   tau(  51) = (   0.2514448   0.3390073   0.2548799  )
        52           H   tau(  52) = (   0.1476888   0.1283242   0.2563449  )
        53           H   tau(  53) = (   0.0945809   0.2535445   0.2563143  )
        54           H   tau(  54) = (   0.3528325   0.1275270   0.2570312  )
        55           H   tau(  55) = (   0.4072467   0.2523641   0.2563855  )
        56           H   tau(  56) = (   0.1827717   0.1833447   0.6776176  )
        57           H   tau(  57) = (   0.1382620   0.2303628   0.7907934  )
        58           H   tau(  58) = (   0.2297027   0.1381264   0.7907150  )
        59           H   tau(  59) = (   0.3073653   0.3074413   0.6709754  )
        60           H   tau(  60) = (   0.3576306   0.2576036   0.7920374  )
        61           H   tau(  61) = (   0.2579591   0.3573097   0.7921623  )
        62           H   tau(  62) = (   0.1841645   0.6833177   0.1774037  )
        63           H   tau(  63) = (   0.1387813   0.7302679   0.2902633  )
        64           H   tau(  64) = (   0.2303979   0.6388604   0.2908775  )
        65           H   tau(  65) = (   0.3081705   0.8080976   0.1711009  )
        66           H   tau(  66) = (   0.3581250   0.7585326   0.2923650  )
        67           H   tau(  67) = (   0.2582062   0.8579624   0.2926039  )
        68           H   tau(  68) = (   0.1832266   0.6840616   0.6778373  )
        69           H   tau(  69) = (   0.1404286   0.7297727   0.7926591  )
        70           H   tau(  70) = (   0.2313622   0.6379971   0.7899444  )
        71           H   tau(  71) = (   0.3083977   0.8077808   0.6703084  )
        72           H   tau(  72) = (   0.3583981   0.7589449   0.7924682  )
        73           H   tau(  73) = (   0.2586548   0.8580475   0.7915938  )
        74           H   tau(  74) = (   0.6833158   0.1837467   0.1784456  )
        75           H   tau(  75) = (   0.6403706   0.2300734   0.2927200  )
        76           H   tau(  76) = (   0.7314347   0.1381981   0.2907202  )
        77           H   tau(  77) = (   0.8084975   0.3077279   0.1708952  )
        78           H   tau(  78) = (   0.8585200   0.2587976   0.2927580  )
        79           H   tau(  79) = (   0.7586343   0.3581324   0.2919468  )
        80           H   tau(  80) = (   0.6840679   0.1832084   0.6774820  )
        81           H   tau(  81) = (   0.6387802   0.2303660   0.7903344  )
        82           H   tau(  82) = (   0.7303623   0.1389621   0.7911287  )
        83           H   tau(  83) = (   0.8078960   0.3077336   0.6700162  )
        84           H   tau(  84) = (   0.8581100   0.2587225   0.7916833  )
        85           H   tau(  85) = (   0.7584927   0.3579603   0.7918467  )
        86           H   tau(  86) = (   0.6829455   0.6827806   0.1785346  )
        87           H   tau(  87) = (   0.6382334   0.7306305   0.2911381  )
        88           H   tau(  88) = (   0.7297342   0.6383584   0.2917641  )
        89           H   tau(  89) = (   0.8073902   0.8074529   0.1713810  )
        90           H   tau(  90) = (   0.8577975   0.7576615   0.2922742  )
        91           H   tau(  91) = (   0.7579725   0.8575080   0.2922753  )
        92           H   tau(  92) = (   0.7507568   0.8398030   0.7541462  )
        93           H   tau(  93) = (   0.6477927   0.6285472   0.7563041  )
        94           H   tau(  94) = (   0.5940578   0.7540307   0.7547311  )
        95           H   tau(  95) = (   0.8518978   0.6278644   0.7555910  )
        96           H   tau(  96) = (   0.9066758   0.7530881   0.7548521  )

     number of k points=    32
                       cart. coord. in units 2pi/alat
        k(    1) = (   0.1250000   0.1250000   0.1250000), wk =   0.0625000
        k(    2) = (   0.1250000   0.1250000   0.3750000), wk =   0.0625000
        k(    3) = (   0.1250000   0.3750000   0.3750000), wk =   0.0625000
        k(    4) = (   0.3750000   0.3750000   0.3750000), wk =   0.0625000
        k(    5) = (  -0.1250000  -0.1250000   0.1250000), wk =   0.0625000
        k(    6) = (  -0.1250000   0.1250000  -0.1250000), wk =   0.0625000
        k(    7) = (   0.1250000  -0.1250000  -0.1250000), wk =   0.0625000
        k(    8) = (  -0.1250000  -0.1250000   0.3750000), wk =   0.0625000
        k(    9) = (  -0.1250000   0.1250000  -0.3750000), wk =   0.0625000
        k(   10) = (   0.1250000  -0.1250000  -0.3750000), wk =   0.0625000
        k(   11) = (   0.3750000  -0.1250000   0.1250000), wk =   0.0625000
        k(   12) = (  -0.3750000  -0.1250000  -0.1250000), wk =   0.0625000
        k(   13) = (   0.3750000   0.1250000  -0.1250000), wk =   0.0625000
        k(   14) = (  -0.3750000   0.1250000   0.1250000), wk =   0.0625000
        k(   15) = (  -0.1250000   0.3750000   0.1250000), wk =   0.0625000
        k(   16) = (  -0.1250000  -0.3750000  -0.1250000), wk =   0.0625000
        k(   17) = (   0.1250000   0.3750000  -0.1250000), wk =   0.0625000
        k(   18) = (   0.1250000  -0.3750000   0.1250000), wk =   0.0625000
        k(   19) = (  -0.1250000  -0.3750000   0.3750000), wk =   0.0625000
        k(   20) = (  -0.1250000   0.3750000  -0.3750000), wk =   0.0625000
        k(   21) = (   0.1250000  -0.3750000  -0.3750000), wk =   0.0625000
        k(   22) = (   0.3750000   0.1250000  -0.3750000), wk =   0.0625000
        k(   23) = (  -0.3750000  -0.1250000  -0.3750000), wk =   0.0625000
        k(   24) = (   0.3750000  -0.1250000   0.3750000), wk =   0.0625000
        k(   25) = (  -0.3750000   0.1250000   0.3750000), wk =   0.0625000
        k(   26) = (   0.3750000  -0.3750000   0.1250000), wk =   0.0625000
        k(   27) = (  -0.3750000  -0.3750000  -0.1250000), wk =   0.0625000
        k(   28) = (   0.3750000   0.3750000  -0.1250000), wk =   0.0625000
        k(   29) = (  -0.3750000   0.3750000   0.1250000), wk =   0.0625000
        k(   30) = (  -0.3750000  -0.3750000   0.3750000), wk =   0.0625000
        k(   31) = (  -0.3750000   0.3750000  -0.3750000), wk =   0.0625000
        k(   32) = (   0.3750000  -0.3750000  -0.3750000), wk =   0.0625000

     Dense  grid:  2501869 G-vectors     FFT dimensions: ( 180, 180, 180)

     Estimated max dynamical RAM per process >       3.28 GB

     Estimated total dynamical RAM >     105.00 GB

     Initial potential from superposition of free atoms

     starting charge  407.97850, renormalised to  408.00000
     Starting wfcs are  286 randomized atomic wfcs
     Checking if some PAW data can be deallocated... 

     total cpu time spent up to now is      948.9 secs

     Self-consistent Calculation

     iteration #  1     ecut=   120.00 Ry     beta= 0.70
     Davidson diagonalization with overlap
     ethr =  1.00E-02,  avg # of iterations =  2.0

     total cpu time spent up to now is     2741.6 secs

     total energy              =  -16543.18208691 Ry
     Harris-Foulkes estimate   =  -16546.76367832 Ry
     estimated scf accuracy    <       6.01749461 Ry

     iteration #  2     ecut=   120.00 Ry     beta= 0.70
     Davidson diagonalization with overlap
     ethr =  1.47E-03,  avg # of iterations =  4.0

     total cpu time spent up to now is     5162.6 secs

     total energy              =  -16544.49426825 Ry
     Harris-Foulkes estimate   =  -16545.86705130 Ry
     estimated scf accuracy    <       2.46764869 Ry

     iteration #  3     ecut=   120.00 Ry     beta= 0.70
     Davidson diagonalization with overlap
     ethr =  6.05E-04,  avg # of iterations =  4.0

     total cpu time spent up to now is     7005.6 secs

     total energy              =  -16545.06014738 Ry
     Harris-Foulkes estimate   =  -16545.11667513 Ry
     estimated scf accuracy    <       0.12561209 Ry

     iteration #  4     ecut=   120.00 Ry     beta= 0.70
     Davidson diagonalization with overlap
     ethr =  3.08E-05,  avg # of iterations =  4.0

     total cpu time spent up to now is     9380.8 secs

     total energy              =  -16545.09360515 Ry
     Harris-Foulkes estimate   =  -16545.11217691 Ry
     estimated scf accuracy    <       0.03597588 Ry

     iteration #  5     ecut=   120.00 Ry     beta= 0.70
     Davidson diagonalization with overlap
     ethr =  8.82E-06,  avg # of iterations =  4.0

     total cpu time spent up to now is    11285.2 secs

     total energy              =  -16545.10060964 Ry
     Harris-Foulkes estimate   =  -16545.10206743 Ry
     estimated scf accuracy    <       0.00275168 Ry

     iteration #  6     ecut=   120.00 Ry     beta= 0.70
     Davidson diagonalization with overlap
     ethr =  6.74E-07,  avg # of iterations =  4.0

     total cpu time spent up to now is    13672.0 secs

     total energy              =  -16545.10136532 Ry
     Harris-Foulkes estimate   =  -16545.10172883 Ry
     estimated scf accuracy    <       0.00082157 Ry

     iteration #  7     ecut=   120.00 Ry     beta= 0.70
     Davidson diagonalization with overlap
     ethr =  2.01E-07,  avg # of iterations =  4.0

     total cpu time spent up to now is    15825.3 secs

     total energy              =  -16545.10152839 Ry
     Harris-Foulkes estimate   =  -16545.10158277 Ry
     estimated scf accuracy    <       0.00011596 Ry

     iteration #  8     ecut=   120.00 Ry     beta= 0.70
     Davidson diagonalization with overlap
     ethr =  2.84E-08,  avg # of iterations =  4.0

     total cpu time spent up to now is    18172.6 secs

     total energy              =  -16545.10156086 Ry
     Harris-Foulkes estimate   =  -16545.10156789 Ry
     estimated scf accuracy    <       0.00001867 Ry

     iteration #  9     ecut=   120.00 Ry     beta= 0.70
     Davidson diagonalization with overlap
     ethr =  4.57E-09,  avg # of iterations =  4.0

     total cpu time spent up to now is    20618.0 secs

     total energy              =  -16545.10156443 Ry
     Harris-Foulkes estimate   =  -16545.10156508 Ry
     estimated scf accuracy    <       0.00000131 Ry

     iteration # 10     ecut=   120.00 Ry     beta= 0.70
     Davidson diagonalization with overlap
     ethr =  3.21E-10,  avg # of iterations =  4.0

     total cpu time spent up to now is    23195.2 secs

     total energy              =  -16545.10156478 Ry
     Harris-Foulkes estimate   =  -16545.10156496 Ry
     estimated scf accuracy    <       0.00000041 Ry

     iteration # 11     ecut=   120.00 Ry     beta= 0.70
     Davidson diagonalization with overlap
     ethr =  1.01E-10,  avg # of iterations =  4.0

     total cpu time spent up to now is    25578.8 secs

     End of self-consistent calculation

          k = 0.1250 0.1250 0.1250 (312775 PWs)   bands (ev):

   -18.4167 -18.4115 -18.0319 -18.0317 -17.9781 -17.9773 -17.9684 -17.9590
   -16.2584 -16.2534 -14.4339 -14.4313 -14.4242 -14.4235 -14.4220 -14.4211
   -14.4204 -14.4201 -14.4161 -14.4134 -14.4111 -14.4107 -14.4068 -14.4059
   -14.4039 -14.3977 -14.3905 -14.3885 -14.3870 -14.3857 -14.3849 -14.3840
   -14.3828 -14.3811 -14.3799 -14.3798 -14.3796 -14.3789 -14.3776 -14.3771
   -14.3745 -14.3744 -14.3738 -14.3731 -14.3708 -14.3699 -14.3696 -14.3685
   -14.3630 -14.3592 -10.9662 -10.9653 -10.9016 -10.9013 -10.8945 -10.8835
   -10.1961 -10.1818  -9.8120  -9.6731  -9.6345  -9.6205  -9.5119  -9.4794
    -9.4463  -9.4371  -9.3941  -9.3887  -9.3461  -9.3346  -9.3208  -9.3026
    -9.2854  -9.2822  -9.2743  -9.2708  -9.2584  -9.1665  -9.1519  -9.1252
    -9.0961  -9.0867  -8.2508  -8.2334  -7.6445  -7.6365  -7.4791  -7.4650
    -7.4410  -7.4279  -7.4155  -7.4122  -7.4045  -7.4009  -7.3887  -7.3807
    -7.3770  -7.3748  -6.0870  -5.8719  -5.8499  -5.6309  -5.6211  -5.6027
    -5.3052  -5.3020  -5.2437  -5.2407  -5.2361  -5.2284  -5.1812  -5.1595
    -5.1512  -4.7075  -4.3297  -4.3169  -3.7945  -3.7889  -3.1901  -3.1882
    -3.1542  -3.1496  -3.1294  -3.1210  -3.1111  -3.1062  -3.0862  -3.0839
    -3.0667  -3.0624  -1.0789  -1.0383  -1.0290  -0.9920  -0.9902  -0.9740
    -0.9326  -0.9120  -0.8551  -0.8515  -0.8471  -0.7570  -0.5584  -0.5112
     0.0966   0.1112   0.1844   0.1957   0.2563   0.3258   0.3316   0.3954
     0.4192   0.4685   0.4871   0.5278   0.5534   0.6289   0.6393   0.6580
     0.6951   0.7086   0.7310   0.7571   0.7747   0.7813   0.8267   0.8472
     0.8561   0.8728   0.8955   0.9112   0.9274   0.9530   0.9601   0.9741
     0.9796   1.0130   1.0503   1.0552   1.0581   1.0737   1.0967   1.1035
     1.1130   1.1341   1.1418   1.1577   1.1724   1.2239   1.2344   1.3071
     1.3924   1.4093   1.4139   1.4579   1.4740   1.4969   1.5953   1.6211
     1.6528   1.6905   1.7008   1.9421

          k = 0.1250 0.1250 0.3750 (312678 PWs)   bands (ev):

   -18.4167 -18.4115 -18.0319 -18.0317 -17.9781 -17.9773 -17.9684 -17.9590
   -16.2584 -16.2534 -14.4317 -14.4294 -14.4260 -14.4226 -14.4222 -14.4217
   -14.4209 -14.4186 -14.4165 -14.4133 -14.4126 -14.4109 -14.4070 -14.4059
   -14.4049 -14.3977 -14.3905 -14.3885 -14.3870 -14.3856 -14.3850 -14.3840
   -14.3827 -14.3811 -14.3799 -14.3798 -14.3796 -14.3789 -14.3776 -14.3771
   -14.3745 -14.3743 -14.3738 -14.3731 -14.3708 -14.3699 -14.3696 -14.3685
   -14.3630 -14.3592 -10.9660 -10.9654 -10.9016 -10.9015 -10.8945 -10.8835
   -10.1955 -10.1818  -9.7761  -9.7075  -9.6374  -9.5896  -9.5707  -9.5247
    -9.4863  -9.4591  -9.3473  -9.3377  -9.3215  -9.3114  -9.3088  -9.2936
    -9.2864  -9.2813  -9.2667  -9.2439  -9.2198  -9.2057  -9.1848  -9.1571
    -9.0949  -9.0881  -8.2508  -8.2334  -7.6445  -7.6365  -7.4775  -7.4629
    -7.4403  -7.4275  -7.4163  -7.4139  -7.4046  -7.4012  -7.3887  -7.3808
    -7.3776  -7.3751  -5.9641  -5.8721  -5.8503  -5.7739  -5.5098  -5.4882
    -5.3327  -5.3110  -5.3042  -5.2986  -5.2442  -5.2417  -5.2316  -5.2206
    -5.0415  -4.8587  -4.3298  -4.3170  -3.7942  -3.7887  -3.1888  -3.1884
    -3.1532  -3.1495  -3.1297  -3.1207  -3.1108  -3.1058  -3.0861  -3.0831
    -3.0660  -3.0636  -1.0132  -0.9824  -0.9707  -0.9581  -0.9364  -0.8991
    -0.8479  -0.8193  -0.7066  -0.6676  -0.6101  -0.5492  -0.4149  -0.4052
    -0.0486   0.0162   0.1030   0.1501   0.2152   0.2299   0.2360   0.2669
     0.2729   0.2902   0.3271   0.3622   0.3707   0.3909   0.6281   0.6377
     0.6933   0.7123   0.7398   0.7464   0.7618   0.7682   0.8194   0.8274
     0.8633   0.8694   0.8862   0.9061   0.9363   0.9565   0.9658   0.9770
     1.0326   1.0538   1.0604   1.0729   1.0769   1.1062   1.1143   1.1272
     1.1304   1.1545   1.1738   1.1828   1.1938   1.2191   1.2254   1.2355
     1.3129   1.3299   1.3708   1.3755   1.4443   1.4682   1.5144   1.5291
     1.6040   1.6153   1.7003   1.7531

          k = 0.1250 0.3750 0.3750 (312762 PWs)   bands (ev):

   -18.4167 -18.4115 -18.0319 -18.0317 -17.9781 -17.9773 -17.9684 -17.9590
   -16.2584 -16.2534 -14.4314 -14.4291 -14.4257 -14.4221 -14.4212 -14.4206
   -14.4199 -14.4186 -14.4168 -14.4145 -14.4134 -14.4106 -14.4074 -14.4068
   -14.4056 -14.3986 -14.3905 -14.3885 -14.3870 -14.3856 -14.3850 -14.3840
   -14.3827 -14.3811 -14.3798 -14.3798 -14.3796 -14.3789 -14.3775 -14.3771
   -14.3745 -14.3744 -14.3738 -14.3731 -14.3708 -14.3699 -14.3696 -14.3685
   -14.3630 -14.3592 -10.9658 -10.9653 -10.9017 -10.9015 -10.8947 -10.8837
   -10.1953 -10.1818  -9.7379  -9.6855  -9.6601  -9.6100  -9.5917  -9.5425
    -9.5215  -9.4898  -9.3326  -9.3200  -9.3109  -9.3021  -9.2977  -9.2823
    -9.2720  -9.2640  -9.2513  -9.2500  -9.2140  -9.2002  -9.1776  -9.1472
    -9.1234  -9.1165  -8.2507  -8.2333  -7.6444  -7.6365  -7.4775  -7.4629
    -7.4401  -7.4274  -7.4163  -7.4141  -7.4049  -7.4011  -7.3889  -7.3808
    -7.3775  -7.3749  -5.8750  -5.8547  -5.8352  -5.6648  -5.6380  -5.4672
    -5.3874  -5.3077  -5.3023  -5.2676  -5.2425  -5.2359  -5.2278  -5.1862
    -5.1677  -5.0055  -4.3297  -4.3169  -3.7942  -3.7887  -3.1879  -3.1876
    -3.1516  -3.1491  -3.1315  -3.1213  -3.1119  -3.1061  -3.0868  -3.0823
    -3.0654  -3.0637  -0.9762  -0.9563  -0.9131  -0.8915  -0.7113  -0.7042
    -0.6583  -0.6395  -0.5402  -0.5254  -0.5171  -0.4903  -0.3827  -0.3680
    -0.0675  -0.0061   0.0392   0.0824   0.1032   0.1113   0.1403   0.1774
     0.2371   0.2492   0.3046   0.3271   0.4003   0.4248   0.5111   0.5273
     0.5420   0.5502   0.5607   0.5643   0.6761   0.6808   0.7422   0.7614
     0.8077   0.8217   0.8788   0.8879   0.9179   0.9405   1.0068   1.0263
     1.0470   1.0584   1.0914   1.0967   1.1033   1.1254   1.1384   1.1466
     1.1701   1.1783   1.2051   1.2124   1.2348   1.2370   1.2509   1.2737
     1.2932   1.3108   1.3372   1.3445   1.3574   1.4036   1.4676   1.4811
     1.4903   1.5357   1.5556   1.5658

          k = 0.3750 0.3750 0.3750 (312804 PWs)   bands (ev):

   -18.4167 -18.4115 -18.0319 -18.0317 -17.9781 -17.9773 -17.9685 -17.9590
   -16.2584 -16.2534 -14.4313 -14.4288 -14.4254 -14.4216 -14.4205 -14.4200
   -14.4188 -14.4180 -14.4162 -14.4144 -14.4125 -14.4119 -14.4089 -14.4087
   -14.4060 -14.3992 -14.3905 -14.3885 -14.3870 -14.3856 -14.3849 -14.3840
   -14.3827 -14.3811 -14.3798 -14.3797 -14.3796 -14.3789 -14.3775 -14.3771
   -14.3744 -14.3744 -14.3739 -14.3731 -14.3708 -14.3699 -14.3696 -14.3685
   -14.3630 -14.3592 -10.9661 -10.9655 -10.9013 -10.9007 -10.8954 -10.8839
   -10.1943 -10.1808  -9.7054  -9.6795  -9.6452  -9.6128  -9.6096  -9.5809
    -9.5526  -9.5248  -9.3376  -9.3246  -9.3041  -9.3005  -9.2849  -9.2645
    -9.2374  -9.2341  -9.2302  -9.2214  -9.2075  -9.1931  -9.1887  -9.1687
    -9.1501  -9.1441  -8.2509  -8.2335  -7.6443  -7.6364  -7.4775  -7.4630
    -7.4398  -7.4271  -7.4164  -7.4140  -7.4044  -7.4013  -7.3889  -7.3802
    -7.3776  -7.3757  -5.8740  -5.8521  -5.7217  -5.5573  -5.5387  -5.5084
    -5.3800  -5.3622  -5.3348  -5.3069  -5.2884  -5.2487  -5.2306  -5.2281
    -5.2138  -5.1410  -4.3299  -4.3171  -3.7943  -3.7887  -3.1880  -3.1871
    -3.1515  -3.1491  -3.1262  -3.1190  -3.1159  -3.1059  -3.0896  -3.0831
    -3.0652  -3.0633  -0.7326  -0.7282  -0.6913  -0.6652  -0.6436  -0.5997
    -0.5730  -0.5438  -0.5346  -0.4942  -0.4492  -0.4311  -0.3918  -0.3644
    -0.0588  -0.0217   0.0197   0.0385   0.0498   0.0762   0.0969   0.1114
     0.1337   0.1535   0.1843   0.2024   0.4314   0.4394   0.4699   0.4837
     0.5388   0.5429   0.5658   0.5944   0.6258   0.6453   0.6688   0.7119
     0.7221   0.7455   0.7520   0.7692   0.8551   0.8855   0.9022   0.9067
     0.9521   0.9742   1.0556   1.0968   1.1331   1.1465   1.1525   1.1602
     1.1695   1.1985   1.2106   1.2131   1.2289   1.2352   1.2626   1.2675
     1.3007   1.3121   1.3261   1.3369   1.3527   1.3709   1.3974   1.4091
     1.4235   1.4361   1.4680   1.4806

          k =-0.1250-0.1250 0.1250 (312775 PWs)   bands (ev):

   -18.4167 -18.4115 -18.0319 -18.0317 -17.9781 -17.9773 -17.9684 -17.9590
   -16.2584 -16.2534 -14.4339 -14.4313 -14.4242 -14.4235 -14.4220 -14.4211
   -14.4204 -14.4201 -14.4161 -14.4134 -14.4111 -14.4107 -14.4068 -14.4059
   -14.4039 -14.3977 -14.3905 -14.3885 -14.3870 -14.3857 -14.3849 -14.3840
   -14.3827 -14.3811 -14.3799 -14.3798 -14.3796 -14.3789 -14.3776 -14.3771
   -14.3745 -14.3744 -14.3738 -14.3731 -14.3708 -14.3699 -14.3696 -14.3685
   -14.3630 -14.3592 -10.9662 -10.9654 -10.9016 -10.9013 -10.8945 -10.8835
   -10.1962 -10.1818  -9.8118  -9.6731  -9.6366  -9.6188  -9.5127  -9.4789
    -9.4462  -9.4342  -9.3957  -9.3887  -9.3492  -9.3339  -9.3211  -9.3018
    -9.2859  -9.2799  -9.2761  -9.2706  -9.2570  -9.1666  -9.1523  -9.1254
    -9.0962  -9.0864  -8.2508  -8.2334  -7.6445  -7.6365  -7.4792  -7.4650
    -7.4410  -7.4279  -7.4156  -7.4122  -7.4045  -7.4009  -7.3886  -7.3807
    -7.3770  -7.3748  -6.0868  -5.8720  -5.8500  -5.6293  -5.6231  -5.6023
    -5.3051  -5.3018  -5.2441  -5.2408  -5.2360  -5.2285  -5.1801  -5.1615
    -5.1502  -4.7073  -4.3297  -4.3169  -3.7945  -3.7889  -3.1904  -3.1880
    -3.1536  -3.1500  -3.1294  -3.1211  -3.1109  -3.1062  -3.0859  -3.0842
    -3.0667  -3.0625  -1.0906  -1.0376  -1.0199  -0.9954  -0.9889  -0.9747
    -0.9329  -0.9099  -0.8560  -0.8526  -0.8409  -0.7570  -0.5575  -0.5107
     0.0968   0.1117   0.1845   0.1964   0.2557   0.3223   0.3368   0.3904
     0.4171   0.4586   0.4917   0.5315   0.5535   0.6280   0.6409   0.6570
     0.6977   0.7062   0.7247   0.7595   0.7776   0.7814   0.8244   0.8557
     0.8580   0.8698   0.8924   0.9067   0.9295   0.9544   0.9613   0.9723
     0.9819   1.0175   1.0465   1.0495   1.0627   1.0742   1.0920   1.1075
     1.1129   1.1361   1.1389   1.1593   1.1737   1.2240   1.2337   1.3067
     1.3934   1.4090   1.4112   1.4572   1.4755   1.4953   1.5968   1.6206
     1.6561   1.6874   1.7019   1.9463

          k =-0.1250 0.1250-0.1250 (312775 PWs)   bands (ev):

   -18.4167 -18.4115 -18.0319 -18.0317 -17.9781 -17.9773 -17.9684 -17.9590
   -16.2584 -16.2534 -14.4339 -14.4313 -14.4242 -14.4235 -14.4220 -14.4211
   -14.4204 -14.4201 -14.4161 -14.4134 -14.4111 -14.4107 -14.4068 -14.4059
   -14.4039 -14.3977 -14.3905 -14.3885 -14.3870 -14.3857 -14.3849 -14.3840
   -14.3827 -14.3811 -14.3799 -14.3798 -14.3796 -14.3789 -14.3776 -14.3771
   -14.3745 -14.3744 -14.3738 -14.3731 -14.3708 -14.3699 -14.3696 -14.3685
   -14.3630 -14.3592 -10.9665 -10.9652 -10.9015 -10.9014 -10.8945 -10.8835
   -10.1962 -10.1818  -9.8138  -9.6687  -9.6336  -9.6203  -9.5188  -9.4738
    -9.4486  -9.4407  -9.3916  -9.3859  -9.3558  -9.3300  -9.3175  -9.3036
    -9.2924  -9.2783  -9.2737  -9.2705  -9.2540  -9.1672  -9.1517  -9.1264
    -9.0953  -9.0870  -8.2507  -8.2333  -7.6445  -7.6365  -7.4791  -7.4650
    -7.4409  -7.4280  -7.4153  -7.4124  -7.4045  -7.4011  -7.3886  -7.3807
    -7.3770  -7.3748  -6.0868  -5.8720  -5.8500  -5.6287  -5.6213  -5.6048
    -5.3066  -5.3040  -5.2464  -5.2400  -5.2350  -5.2285  -5.1755  -5.1604
    -5.1515  -4.7072  -4.3297  -4.3169  -3.7945  -3.7889  -3.1902  -3.1881
    -3.1543  -3.1496  -3.1294  -3.1212  -3.1111  -3.1064  -3.0858  -3.0841
    -3.0673  -3.0619  -1.0949  -1.0696  -1.0405  -1.0010  -0.9684  -0.9414
    -0.9388  -0.9129  -0.8527  -0.8486  -0.8209  -0.7545  -0.5593  -0.5101
     0.0905   0.1207   0.1882   0.1904   0.2572   0.3183   0.3331   0.3774
     0.4292   0.4383   0.4823   0.5416   0.5545   0.6164   0.6226   0.6768
     0.6931   0.7110   0.7478   0.7585   0.7750   0.7838   0.8387   0.8503
     0.8587   0.8755   0.8980   0.9015   0.9223   0.9475   0.9587   0.9845
     0.9955   1.0217   1.0327   1.0421   1.0603   1.0836   1.0888   1.0941
     1.1111   1.1268   1.1455   1.1558   1.1575   1.2337   1.2432   1.3145
     1.3838   1.4092   1.4195   1.4532   1.4697   1.4876   1.5770   1.5891
     1.6497   1.7099   1.7481   1.9736

          k = 0.1250-0.1250-0.1250 (312775 PWs)   bands (ev):

   -18.4167 -18.4115 -18.0319 -18.0317 -17.9781 -17.9773 -17.9684 -17.9590
   -16.2584 -16.2534 -14.4339 -14.4313 -14.4242 -14.4235 -14.4220 -14.4211
   -14.4204 -14.4201 -14.4161 -14.4134 -14.4111 -14.4107 -14.4068 -14.4059
   -14.4039 -14.3977 -14.3905 -14.3885 -14.3870 -14.3857 -14.3849 -14.3840
   -14.3827 -14.3811 -14.3799 -14.3798 -14.3796 -14.3789 -14.3776 -14.3771
   -14.3745 -14.3744 -14.3738 -14.3731 -14.3708 -14.3699 -14.3696 -14.3685
   -14.3630 -14.3592 -10.9665 -10.9652 -10.9015 -10.9014 -10.8945 -10.8835
   -10.1962 -10.1818  -9.8138  -9.6688  -9.6344  -9.6189  -9.5180  -9.4749
    -9.4488  -9.4430  -9.3914  -9.3836  -9.3539  -9.3302  -9.3180  -9.3057
    -9.2920  -9.2791  -9.2729  -9.2697  -9.2547  -9.1674  -9.1516  -9.1262
    -9.0953  -9.0870  -8.2507  -8.2333  -7.6445  -7.6365  -7.4791  -7.4650
    -7.4410  -7.4280  -7.4152  -7.4126  -7.4045  -7.4008  -7.3887  -7.3808
    -7.3770  -7.3748  -6.0869  -5.8720  -5.8500  -5.6302  -5.6195  -5.6051
    -5.3066  -5.3041  -5.2458  -5.2399  -5.2354  -5.2286  -5.1761  -5.1593
    -5.1521  -4.7074  -4.3297  -4.3169  -3.7945  -3.7889  -3.1906  -3.1879
    -3.1538  -3.1499  -3.1294  -3.1210  -3.1113  -3.1061  -3.0861  -3.0839
    -3.0675  -3.0618  -1.0919  -1.0638  -1.0398  -0.9888  -0.9767  -0.9505
    -0.9424  -0.9122  -0.8544  -0.8524  -0.8189  -0.7549  -0.5594  -0.5107
     0.0899   0.1203   0.1874   0.1907   0.2575   0.3220   0.3319   0.3782
     0.4301   0.4403   0.5006   0.5260   0.5571   0.6123   0.6205   0.6718
     0.6927   0.7169   0.7454   0.7602   0.7738   0.7865   0.8329   0.8520
     0.8543   0.8736   0.9005   0.9041   0.9175   0.9530   0.9584   0.9863
     0.9984   1.0143   1.0393   1.0469   1.0643   1.0773   1.0873   1.0948
     1.1079   1.1328   1.1460   1.1509   1.1578   1.2336   1.2440   1.3158
     1.3842   1.4092   1.4220   1.4540   1.4696   1.4884   1.5765   1.5879
     1.6484   1.7091   1.7474   1.9661

          k =-0.1250-0.1250 0.3750 (312678 PWs)   bands (ev):

   -18.4167 -18.4115 -18.0319 -18.0317 -17.9781 -17.9773 -17.9684 -17.9590
   -16.2584 -16.2534 -14.4317 -14.4294 -14.4260 -14.4226 -14.4222 -14.4217
   -14.4209 -14.4186 -14.4165 -14.4133 -14.4126 -14.4109 -14.4070 -14.4059
   -14.4049 -14.3977 -14.3905 -14.3885 -14.3870 -14.3856 -14.3850 -14.3840
   -14.3827 -14.3811 -14.3799 -14.3798 -14.3796 -14.3789 -14.3776 -14.3771
   -14.3745 -14.3743 -14.3738 -14.3731 -14.3708 -14.3699 -14.3696 -14.3685
   -14.3630 -14.3592 -10.9660 -10.9654 -10.9016 -10.9015 -10.8945 -10.8835
   -10.1955 -10.1818  -9.7756  -9.7084  -9.6372  -9.5900  -9.5710  -9.5240
    -9.4859  -9.4584  -9.3498  -9.3392  -9.3174  -9.3122  -9.3091  -9.2942
    -9.2875  -9.2809  -9.2657  -9.2428  -9.2214  -9.2037  -9.1854  -9.1579
    -9.0951  -9.0879  -8.2508  -8.2334  -7.6445  -7.6365  -7.4775  -7.4629
    -7.4403  -7.4275  -7.4163  -7.4138  -7.4046  -7.4012  -7.3887  -7.3809
    -7.3775  -7.3751  -5.9636  -5.8724  -5.8505  -5.7739  -5.5101  -5.4879
    -5.3312  -5.3122  -5.3041  -5.2997  -5.2441  -5.2417  -5.2316  -5.2203
    -5.0421  -4.8582  -4.3298  -4.3170  -3.7942  -3.7887  -3.1895  -3.1879
    -3.1523  -3.1502  -3.1297  -3.1208  -3.1106  -3.1058  -3.0858  -3.0834
    -3.0660  -3.0637  -1.0191  -0.9812  -0.9694  -0.9570  -0.9377  -0.8990
    -0.8517  -0.8187  -0.7053  -0.6650  -0.6073  -0.5474  -0.4102  -0.4027
    -0.0513   0.0153   0.0960   0.1520   0.2185   0.2260   0.2376   0.2632
     0.2710   0.2907   0.3274   0.3608   0.3685   0.3912   0.6292   0.6382
     0.6908   0.7135   0.7399   0.7531   0.7612   0.7674   0.8240   0.8286
     0.8601   0.8644   0.8827   0.9074   0.9396   0.9540   0.9677   0.9792
     1.0391   1.0433   1.0611   1.0732   1.0755   1.1088   1.1176   1.1239
     1.1306   1.1628   1.1696   1.1830   1.1931   1.2205   1.2269   1.2347
     1.3062   1.3286   1.3722   1.3772   1.4445   1.4654   1.5114   1.5346
     1.6054   1.6144   1.6977   1.7580

          k =-0.1250 0.1250-0.3750 (312678 PWs)   bands (ev):

   -18.4167 -18.4115 -18.0319 -18.0317 -17.9781 -17.9773 -17.9684 -17.9590
   -16.2584 -16.2534 -14.4317 -14.4294 -14.4260 -14.4226 -14.4222 -14.4217
   -14.4209 -14.4186 -14.4165 -14.4133 -14.4126 -14.4109 -14.4070 -14.4059
   -14.4049 -14.3977 -14.3905 -14.3885 -14.3870 -14.3856 -14.3850 -14.3840
   -14.3827 -14.3811 -14.3799 -14.3798 -14.3796 -14.3789 -14.3776 -14.3771
   -14.3745 -14.3743 -14.3738 -14.3731 -14.3708 -14.3699 -14.3696 -14.3685
   -14.3630 -14.3592 -10.9661 -10.9655 -10.9015 -10.9014 -10.8945 -10.8835
   -10.1955 -10.1818  -9.7773  -9.7086  -9.6336  -9.5896  -9.5688  -9.5240
    -9.4893  -9.4600  -9.3446  -9.3389  -9.3217  -9.3166  -9.3091  -9.2972
    -9.2860  -9.2785  -9.2674  -9.2407  -9.2185  -9.2047  -9.1840  -9.1587
    -9.0949  -9.0881  -8.2508  -8.2334  -7.6445  -7.6365  -7.4775  -7.4629
    -7.4403  -7.4275  -7.4164  -7.4138  -7.4047  -7.4012  -7.3887  -7.3807
    -7.3776  -7.3751  -5.9634  -5.8725  -5.8505  -5.7734  -5.5099  -5.4894
    -5.3372  -5.3135  -5.3046  -5.2947  -5.2430  -5.2401  -5.2310  -5.2203
    -5.0416  -4.8581  -4.3297  -4.3169  -3.7942  -3.7887  -3.1888  -3.1884
    -3.1531  -3.1496  -3.1297  -3.1209  -3.1107  -3.1059  -3.0858  -3.0833
    -3.0661  -3.0636  -1.0592  -1.0150  -0.9507  -0.9440  -0.8963  -0.8942
    -0.8514  -0.8168  -0.7004  -0.6650  -0.6059  -0.5472  -0.4090  -0.4063
    -0.0557   0.0178   0.1012   0.1508   0.2101   0.2172   0.2376   0.2610
     0.2690   0.3006   0.3300   0.3557   0.3624   0.4007   0.6133   0.6247
     0.7003   0.7232   0.7393   0.7423   0.7698   0.7744   0.8113   0.8182
     0.8575   0.8676   0.8892   0.8961   0.9591   0.9700   0.9884   0.9936
     1.0229   1.0448   1.0578   1.0654   1.0815   1.0946   1.1117   1.1235
     1.1288   1.1527   1.1646   1.1727   1.1913   1.2201   1.2450   1.2516
     1.3106   1.3317   1.3638   1.3729   1.4359   1.4577   1.5019   1.5298
     1.5773   1.5832   1.7567   1.8071

          k = 0.1250-0.1250-0.3750 (312678 PWs)   bands (ev):

   -18.4167 -18.4115 -18.0319 -18.0317 -17.9781 -17.9773 -17.9684 -17.9590
   -16.2584 -16.2534 -14.4317 -14.4294 -14.4260 -14.4226 -14.4222 -14.4217
   -14.4209 -14.4186 -14.4165 -14.4133 -14.4126 -14.4109 -14.4070 -14.4059
   -14.4049 -14.3977 -14.3905 -14.3885 -14.3870 -14.3856 -14.3850 -14.3840
   -14.3827 -14.3811 -14.3799 -14.3798 -14.3796 -14.3789 -14.3776 -14.3771
   -14.3745 -14.3743 -14.3738 -14.3731 -14.3708 -14.3699 -14.3696 -14.3685
   -14.3630 -14.3592 -10.9661 -10.9655 -10.9015 -10.9014 -10.8945 -10.8835
   -10.1955 -10.1818  -9.7774  -9.7086  -9.6335  -9.5889  -9.5686  -9.5250
    -9.4890  -9.4610  -9.3419  -9.3375  -9.3219  -9.3162  -9.3117  -9.3006
    -9.2855  -9.2769  -9.2668  -9.2388  -9.2199  -9.2065  -9.1833  -9.1582
    -9.0948  -9.0881  -8.2508  -8.2334  -7.6445  -7.6365  -7.4775  -7.4629
    -7.4403  -7.4275  -7.4162  -7.4140  -7.4048  -7.4010  -7.3888  -7.3809
    -7.3776  -7.3751  -5.9638  -5.8722  -5.8504  -5.7735  -5.5098  -5.4894
    -5.3377  -5.3137  -5.3048  -5.2935  -5.2432  -5.2403  -5.2310  -5.2203
    -5.0413  -4.8584  -4.3297  -4.3169  -3.7942  -3.7887  -3.1895  -3.1879
    -3.1523  -3.1502  -3.1297  -3.1207  -3.1109  -3.1057  -3.0861  -3.0831
    -3.0665  -3.0634  -1.0590  -1.0150  -0.9472  -0.9348  -0.9004  -0.8952
    -0.8483  -0.8181  -0.7025  -0.6722  -0.6089  -0.5496  -0.4127  -0.4073
    -0.0510   0.0219   0.1033   0.1467   0.2092   0.2194   0.2365   0.2663
     0.2734   0.3059   0.3272   0.3537   0.3639   0.3983   0.6126   0.6243
     0.6969   0.7166   0.7380   0.7418   0.7717   0.7739   0.8160   0.8197
     0.8545   0.8698   0.8913   0.8936   0.9561   0.9737   0.9859   0.9924
     1.0335   1.0377   1.0615   1.0663   1.0806   1.0935   1.0983   1.1306
     1.1328   1.1535   1.1704   1.1778   1.1844   1.2194   1.2437   1.2503
     1.3141   1.3277   1.3670   1.3731   1.4338   1.4621   1.5037   1.5231
     1.5756   1.5842   1.7586   1.8011

          k = 0.3750-0.1250 0.1250 (312678 PWs)   bands (ev):

   -18.4167 -18.4115 -18.0319 -18.0317 -17.9781 -17.9773 -17.9685 -17.9590
   -16.2584 -16.2534 -14.4338 -14.4311 -14.4238 -14.4229 -14.4219 -14.4200
   -14.4199 -14.4188 -14.4161 -14.4126 -14.4114 -14.4112 -14.4085 -14.4073
   -14.4043 -14.3983 -14.3905 -14.3885 -14.3870 -14.3857 -14.3849 -14.3840
   -14.3828 -14.3811 -14.3798 -14.3797 -14.3797 -14.3789 -14.3776 -14.3771
   -14.3744 -14.3744 -14.3739 -14.3731 -14.3708 -14.3699 -14.3696 -14.3685
   -14.3630 -14.3592 -10.9665 -10.9654 -10.9013 -10.9007 -10.8952 -10.8838
   -10.1946 -10.1809  -9.7839  -9.7205  -9.6015  -9.5906  -9.5645  -9.5267
    -9.4487  -9.4446  -9.3944  -9.3920  -9.3629  -9.3449  -9.3114  -9.3063
    -9.2814  -9.2683  -9.2275  -9.2198  -9.1872  -9.1767  -9.1628  -9.1434
    -9.1241  -9.1179  -8.2509  -8.2336  -7.6443  -7.6364  -7.4791  -7.4650
    -7.4405  -7.4276  -7.4146  -7.4131  -7.4043  -7.4010  -7.3887  -7.3801
    -7.3772  -7.3754  -5.9598  -5.8731  -5.8511  -5.7661  -5.5086  -5.4965
    -5.3333  -5.3167  -5.3034  -5.2935  -5.2409  -5.2370  -5.2347  -5.2242
    -5.0449  -4.8601  -4.3299  -4.3171  -3.7945  -3.7890  -3.1889  -3.1884
    -3.1533  -3.1496  -3.1244  -3.1194  -3.1156  -3.1046  -3.0896  -3.0848
    -3.0665  -3.0625  -1.0741  -1.0459  -1.0135  -0.9844  -0.9414  -0.9351
    -0.8533  -0.8006  -0.6377  -0.6278  -0.5571  -0.4917  -0.3881  -0.3543
     0.0131   0.0729   0.1049   0.1266   0.1511   0.2120   0.2427   0.2648
     0.3092   0.3269   0.3674   0.3956   0.4075   0.4944   0.5269   0.5572
     0.5943   0.6146   0.7515   0.7535   0.7773   0.7787   0.8151   0.8385
     0.8447   0.8646   0.8986   0.9086   0.9253   0.9282   0.9576   0.9910
     1.0008   1.0123   1.0309   1.0595   1.0714   1.0909   1.0993   1.1045
     1.1436   1.1672   1.1953   1.2312   1.2471   1.2552   1.2722   1.2843
     1.3459   1.3543   1.3740   1.3858   1.4161   1.4581   1.4730   1.4769
     1.4965   1.6152   1.6968   1.7712

          k =-0.3750-0.1250-0.1250 (312678 PWs)   bands (ev):

   -18.4167 -18.4115 -18.0319 -18.0317 -17.9781 -17.9773 -17.9685 -17.9590
   -16.2584 -16.2534 -14.4338 -14.4311 -14.4238 -14.4229 -14.4219 -14.4200
   -14.4199 -14.4188 -14.4162 -14.4126 -14.4114 -14.4112 -14.4085 -14.4073
   -14.4043 -14.3983 -14.3905 -14.3885 -14.3870 -14.3857 -14.3849 -14.3840
   -14.3828 -14.3811 -14.3798 -14.3797 -14.3797 -14.3789 -14.3776 -14.3771
   -14.3744 -14.3744 -14.3739 -14.3731 -14.3708 -14.3699 -14.3696 -14.3685
   -14.3630 -14.3592 -10.9661 -10.9656 -10.9014 -10.9007 -10.8953 -10.8838
   -10.1945 -10.1809  -9.7787  -9.7277  -9.6088  -9.5893  -9.5534  -9.5294
    -9.4469  -9.4442  -9.4013  -9.3886  -9.3550  -9.3516  -9.3118  -9.3060
    -9.2763  -9.2714  -9.2267  -9.2232  -9.1896  -9.1758  -9.1632  -9.1400
    -9.1249  -9.1181  -8.2510  -8.2336  -7.6443  -7.6364  -7.4792  -7.4650
    -7.4405  -7.4275  -7.4151  -7.4127  -7.4043  -7.4011  -7.3888  -7.3801
    -7.3772  -7.3755  -5.9604  -5.8730  -5.8511  -5.7659  -5.5106  -5.4949
    -5.3267  -5.3157  -5.3019  -5.2966  -5.2420  -5.2393  -5.2353  -5.2249
    -5.0458  -4.8601  -4.3300  -4.3172  -3.7945  -3.7890  -3.1888  -3.1885
    -3.1531  -3.1498  -3.1244  -3.1191  -3.1155  -3.1045  -3.0898  -3.0848
    -3.0655  -3.0636  -1.0606  -1.0462  -0.9929  -0.9867  -0.9557  -0.9377
    -0.8316  -0.8113  -0.6519  -0.6327  -0.5732  -0.5034  -0.4002  -0.3597
     0.0199   0.0948   0.1103   0.1224   0.1601   0.2240   0.2308   0.2809
     0.3126   0.3210   0.3735   0.3854   0.4252   0.5037   0.5317   0.5620
     0.5773   0.6237   0.7233   0.7378   0.7802   0.7852   0.8086   0.8345
     0.8465   0.8824   0.8844   0.9080   0.9173   0.9288   0.9468   0.9672
     1.0051   1.0493   1.0522   1.0582   1.0729   1.0825   1.1008   1.1124
     1.1414   1.1823   1.1938   1.2161   1.2323   1.2494   1.2751   1.2966
     1.3384   1.3449   1.3557   1.4177   1.4451   1.4514   1.4832   1.4896
     1.5028   1.5715   1.6941   1.7447

          k = 0.3750 0.1250-0.1250 (312678 PWs)   bands (ev):

   -18.4167 -18.4115 -18.0319 -18.0317 -17.9781 -17.9773 -17.9685 -17.9590
   -16.2584 -16.2534 -14.4338 -14.4311 -14.4238 -14.4229 -14.4219 -14.4200
   -14.4199 -14.4188 -14.4161 -14.4126 -14.4114 -14.4112 -14.4085 -14.4073
   -14.4043 -14.3983 -14.3905 -14.3885 -14.3870 -14.3857 -14.3849 -14.3840
   -14.3828 -14.3811 -14.3798 -14.3797 -14.3797 -14.3789 -14.3776 -14.3771
   -14.3744 -14.3744 -14.3739 -14.3731 -14.3708 -14.3699 -14.3696 -14.3685
   -14.3630 -14.3592 -10.9661 -10.9656 -10.9014 -10.9007 -10.8953 -10.8838
   -10.1945 -10.1809  -9.7784  -9.7279  -9.6103  -9.5881  -9.5538  -9.5297
    -9.4456  -9.4433  -9.4013  -9.3880  -9.3578  -9.3519  -9.3112  -9.3068
    -9.2753  -9.2711  -9.2264  -9.2231  -9.1895  -9.1755  -9.1638  -9.1407
    -9.1250  -9.1176  -8.2510  -8.2336  -7.6443  -7.6364  -7.4792  -7.4650
    -7.4406  -7.4275  -7.4150  -7.4128  -7.4044  -7.4009  -7.3887  -7.3802
    -7.3772  -7.3754  -5.9601  -5.8730  -5.8511  -5.7658  -5.5104  -5.4953
    -5.3258  -5.3170  -5.3019  -5.2965  -5.2419  -5.2397  -5.2353  -5.2247
    -5.0458  -4.8599  -4.3300  -4.3172  -3.7945  -3.7890  -3.1894  -3.1880
    -3.1525  -3.1503  -3.1244  -3.1192  -3.1155  -3.1043  -3.0897  -3.0849
    -3.0656  -3.0636  -1.0703  -1.0498  -0.9899  -0.9823  -0.9517  -0.9349
    -0.8312  -0.8113  -0.6517  -0.6345  -0.5721  -0.5030  -0.4003  -0.3585
     0.0205   0.0949   0.1102   0.1217   0.1615   0.2272   0.2328   0.2732
     0.3100   0.3263   0.3708   0.3844   0.4259   0.5035   0.5332   0.5607
     0.5732   0.6236   0.7213   0.7398   0.7773   0.7833   0.8056   0.8351
     0.8465   0.8796   0.8930   0.9037   0.9220   0.9318   0.9560   0.9625
     1.0073   1.0462   1.0487   1.0561   1.0723   1.0798   1.0941   1.1168
     1.1448   1.1838   1.1889   1.2164   1.2400   1.2494   1.2767   1.2968
     1.3359   1.3392   1.3642   1.4172   1.4441   1.4508   1.4804   1.4868
     1.5053   1.5718   1.6980   1.7470

          k =-0.3750 0.1250 0.1250 (312678 PWs)   bands (ev):

   -18.4167 -18.4115 -18.0319 -18.0317 -17.9781 -17.9773 -17.9685 -17.9590
   -16.2584 -16.2534 -14.4338 -14.4311 -14.4238 -14.4229 -14.4219 -14.4200
   -14.4199 -14.4188 -14.4161 -14.4126 -14.4114 -14.4112 -14.4085 -14.4073
   -14.4043 -14.3983 -14.3905 -14.3885 -14.3870 -14.3857 -14.3849 -14.3840
   -14.3828 -14.3811 -14.3798 -14.3797 -14.3797 -14.3789 -14.3776 -14.3771
   -14.3744 -14.3744 -14.3739 -14.3731 -14.3708 -14.3699 -14.3696 -14.3685
   -14.3630 -14.3592 -10.9665 -10.9654 -10.9013 -10.9007 -10.8952 -10.8838
   -10.1946 -10.1809  -9.7838  -9.7209  -9.6025  -9.5887  -9.5636  -9.5275
    -9.4505  -9.4452  -9.3954  -9.3908  -9.3599  -9.3449  -9.3113  -9.3076
    -9.2820  -9.2685  -9.2272  -9.2193  -9.1864  -9.1776  -9.1630  -9.1439
    -9.1238  -9.1176  -8.2509  -8.2336  -7.6443  -7.6364  -7.4791  -7.4650
    -7.4405  -7.4276  -7.4146  -7.4132  -7.4043  -7.4010  -7.3888  -7.3802
    -7.3771  -7.3754  -5.9600  -5.8730  -5.8511  -5.7662  -5.5091  -5.4957
    -5.3342  -5.3143  -5.3035  -5.2950  -5.2408  -5.2370  -5.2347  -5.2239
    -5.0451  -4.8602  -4.3299  -4.3171  -3.7945  -3.7890  -3.1897  -3.1878
    -3.1525  -3.1502  -3.1244  -3.1192  -3.1155  -3.1046  -3.0897  -3.0847
    -3.0667  -3.0625  -1.0686  -1.0406  -1.0160  -0.9755  -0.9545  -0.9382
    -0.8536  -0.8011  -0.6387  -0.6296  -0.5579  -0.4913  -0.3887  -0.3538
     0.0136   0.0724   0.1028   0.1249   0.1562   0.2136   0.2430   0.2590
     0.3145   0.3259   0.3711   0.3946   0.4077   0.4949   0.5297   0.5553
     0.5898   0.6182   0.7477   0.7524   0.7732   0.7877   0.8108   0.8415
     0.8455   0.8658   0.9011   0.9038   0.9256   0.9307   0.9600   0.9952
     0.9958   1.0107   1.0297   1.0663   1.0732   1.0857   1.0965   1.1051
     1.1377   1.1702   1.1966   1.2349   1.2472   1.2557   1.2734   1.2857
     1.3440   1.3532   1.3792   1.3827   1.4157   1.4564   1.4757   1.4803
     1.4912   1.6148   1.6938   1.7654

          k =-0.1250 0.3750 0.1250 (312678 PWs)   bands (ev):

   -18.4167 -18.4115 -18.0319 -18.0317 -17.9781 -17.9773 -17.9684 -17.9590
   -16.2584 -16.2534 -14.4336 -14.4310 -14.4237 -14.4226 -14.4211 -14.4206
   -14.4200 -14.4195 -14.4167 -14.4138 -14.4120 -14.4106 -14.4074 -14.4065
   -14.4045 -14.3986 -14.3905 -14.3885 -14.3870 -14.3857 -14.3849 -14.3840
   -14.3828 -14.3811 -14.3798 -14.3798 -14.3796 -14.3789 -14.3775 -14.3771
   -14.3745 -14.3744 -14.3738 -14.3731 -14.3708 -14.3699 -14.3696 -14.3685
   -14.3630 -14.3592 -10.9663 -10.9652 -10.9015 -10.9014 -10.8947 -10.8837
   -10.1958 -10.1821  -9.7773  -9.7056  -9.6217  -9.5882  -9.5756  -9.5233
    -9.4547  -9.4501  -9.3922  -9.3864  -9.3587  -9.3427  -9.2920  -9.2896
    -9.2815  -9.2681  -9.2459  -9.2376  -9.1879  -9.1836  -9.1769  -9.1262
    -9.1235  -9.1104  -8.2506  -8.2332  -7.6445  -7.6365  -7.4791  -7.4650
    -7.4408  -7.4279  -7.4145  -7.4129  -7.4045  -7.4012  -7.3889  -7.3808
    -7.3770  -7.3747  -5.9608  -5.8720  -5.8502  -5.7670  -5.5075  -5.4965
    -5.3356  -5.3131  -5.3044  -5.2950  -5.2429  -5.2399  -5.2326  -5.2237
    -5.0424  -4.8593  -4.3297  -4.3169  -3.7944  -3.7889  -3.1891  -3.1876
    -3.1520  -3.1495  -3.1310  -3.1213  -3.1116  -3.1065  -3.0863  -3.0834
    -3.0674  -3.0629  -1.0517  -1.0214  -1.0152  -0.9702  -0.9393  -0.9264
    -0.9134  -0.8517  -0.5900  -0.5747  -0.5415  -0.5026  -0.4522  -0.3581
     0.0010   0.0593   0.1231   0.1284   0.1766   0.1977   0.2134   0.2487
     0.2878   0.3084   0.3667   0.3741   0.4042   0.5093   0.5494   0.5821
     0.6073   0.6384   0.7363   0.7381   0.7806   0.7942   0.8162   0.8305
     0.8533   0.8764   0.8855   0.9069   0.9338   0.9374   0.9794   0.9927
     0.9991   1.0254   1.0273   1.0597   1.0674   1.0775   1.1109   1.1131
     1.1272   1.1705   1.1781   1.2373   1.2444   1.2534   1.2642   1.2984
     1.3402   1.3440   1.3588   1.3972   1.4270   1.4521   1.4690   1.4866
     1.4996   1.6052   1.7102   1.7791

          k =-0.1250-0.3750-0.1250 (312678 PWs)   bands (ev):

   -18.4167 -18.4115 -18.0319 -18.0317 -17.9781 -17.9773 -17.9684 -17.9590
   -16.2584 -16.2534 -14.4336 -14.4310 -14.4237 -14.4226 -14.4211 -14.4206
   -14.4200 -14.4195 -14.4167 -14.4138 -14.4120 -14.4106 -14.4074 -14.4065
   -14.4045 -14.3986 -14.3905 -14.3885 -14.3870 -14.3857 -14.3849 -14.3840
   -14.3828 -14.3811 -14.3798 -14.3798 -14.3796 -14.3789 -14.3775 -14.3771
   -14.3745 -14.3744 -14.3738 -14.3731 -14.3708 -14.3699 -14.3696 -14.3685
   -14.3630 -14.3592 -10.9659 -10.9654 -10.9016 -10.9014 -10.8947 -10.8837
   -10.1957 -10.1821  -9.7722  -9.7128  -9.6279  -9.5884  -9.5656  -9.5254
    -9.4550  -9.4460  -9.3948  -9.3870  -9.3534  -9.3490  -9.2948  -9.2857
    -9.2747  -9.2718  -9.2455  -9.2419  -9.1897  -9.1836  -9.1763  -9.1241
    -9.1221  -9.1125  -8.2506  -8.2332  -7.6444  -7.6365  -7.4792  -7.4650
    -7.4408  -7.4278  -7.4149  -7.4126  -7.4047  -7.4012  -7.3889  -7.3808
    -7.3770  -7.3746  -5.9612  -5.8720  -5.8502  -5.7667  -5.5091  -5.4954
    -5.3275  -5.3157  -5.3028  -5.2964  -5.2442  -5.2417  -5.2334  -5.2244
    -5.0433  -4.8592  -4.3297  -4.3169  -3.7945  -3.7889  -3.1886  -3.1879
    -3.1522  -3.1496  -3.1310  -3.1214  -3.1112  -3.1067  -3.0865  -3.0834
    -3.0659  -3.0642  -1.0510  -1.0284  -0.9821  -0.9736  -0.9483  -0.9259
    -0.9015  -0.8558  -0.5998  -0.5889  -0.5426  -0.5089  -0.4757  -0.3620
     0.0090   0.0827   0.1191   0.1504   0.1671   0.2020   0.2088   0.2668
     0.2866   0.3018   0.3512   0.3852   0.4214   0.5145   0.5548   0.5979
     0.6005   0.6182   0.7178   0.7431   0.7833   0.7873   0.8017   0.8328
     0.8501   0.8835   0.8890   0.9153   0.9244   0.9368   0.9564   0.9732
     1.0095   1.0296   1.0493   1.0627   1.0681   1.0857   1.1113   1.1149
     1.1238   1.1803   1.1869   1.2200   1.2447   1.2519   1.2721   1.2952
     1.3214   1.3293   1.3445   1.4379   1.4565   1.4604   1.4800   1.4919
     1.5022   1.5503   1.7186   1.7540

          k = 0.1250 0.3750-0.1250 (312678 PWs)   bands (ev):

   -18.4167 -18.4115 -18.0319 -18.0317 -17.9781 -17.9773 -17.9684 -17.9590
   -16.2584 -16.2534 -14.4336 -14.4310 -14.4237 -14.4226 -14.4211 -14.4206
   -14.4200 -14.4195 -14.4167 -14.4138 -14.4120 -14.4106 -14.4074 -14.4065
   -14.4045 -14.3986 -14.3905 -14.3885 -14.3870 -14.3857 -14.3849 -14.3840
   -14.3828 -14.3811 -14.3798 -14.3798 -14.3796 -14.3789 -14.3775 -14.3771
   -14.3745 -14.3744 -14.3738 -14.3731 -14.3708 -14.3699 -14.3696 -14.3685
   -14.3630 -14.3592 -10.9659 -10.9654 -10.9016 -10.9014 -10.8947 -10.8837
   -10.1957 -10.1821  -9.7719  -9.7130  -9.6289  -9.5881  -9.5662  -9.5238
    -9.4549  -9.4456  -9.3969  -9.3847  -9.3550  -9.3497  -9.2944  -9.2851
    -9.2749  -9.2718  -9.2447  -9.2413  -9.1914  -9.1820  -9.1768  -9.1269
    -9.1196  -9.1125  -8.2506  -8.2332  -7.6444  -7.6365  -7.4792  -7.4650
    -7.4408  -7.4278  -7.4151  -7.4124  -7.4045  -7.4013  -7.3889  -7.3808
    -7.3769  -7.3747  -5.9606  -5.8723  -5.8503  -5.7667  -5.5099  -5.4946
    -5.3268  -5.3153  -5.3026  -5.2978  -5.2442  -5.2414  -5.2335  -5.2245
    -5.0436  -4.8588  -4.3297  -4.3169  -3.7945  -3.7889  -3.1888  -3.1878
    -3.1518  -3.1498  -3.1310  -3.1214  -3.1112  -3.1066  -3.0862  -3.0837
    -3.0660  -3.0642  -1.0516  -1.0250  -0.9897  -0.9754  -0.9511  -0.9217
    -0.9019  -0.8556  -0.6010  -0.5821  -0.5485  -0.4990  -0.4731  -0.3595
     0.0058   0.0790   0.1148   0.1494   0.1672   0.2052   0.2116   0.2595
     0.2884   0.3007   0.3496   0.3843   0.4189   0.5168   0.5560   0.5966
     0.6046   0.6186   0.7148   0.7373   0.7791   0.7898   0.8119   0.8365
     0.8491   0.8861   0.8887   0.9133   0.9187   0.9341   0.9584   0.9792
     1.0056   1.0371   1.0493   1.0557   1.0745   1.0854   1.1060   1.1110
     1.1251   1.1828   1.1872   1.2226   1.2463   1.2528   1.2732   1.2929
     1.3174   1.3302   1.3436   1.4453   1.4525   1.4621   1.4762   1.4895
     1.5081   1.5484   1.7155   1.7580

          k = 0.1250-0.3750 0.1250 (312678 PWs)   bands (ev):

   -18.4167 -18.4115 -18.0319 -18.0317 -17.9781 -17.9773 -17.9684 -17.9590
   -16.2584 -16.2534 -14.4336 -14.4310 -14.4237 -14.4226 -14.4211 -14.4206
   -14.4200 -14.4195 -14.4167 -14.4138 -14.4120 -14.4106 -14.4074 -14.4065
   -14.4045 -14.3986 -14.3905 -14.3885 -14.3870 -14.3857 -14.3849 -14.3840
   -14.3828 -14.3811 -14.3798 -14.3798 -14.3796 -14.3789 -14.3775 -14.3771
   -14.3745 -14.3744 -14.3738 -14.3731 -14.3708 -14.3699 -14.3696 -14.3685
   -14.3630 -14.3592 -10.9662 -10.9652 -10.9015 -10.9014 -10.8947 -10.8837
   -10.1958 -10.1821  -9.7770  -9.7060  -9.6213  -9.5893  -9.5755  -9.5225
    -9.4550  -9.4489  -9.3916  -9.3881  -9.3586  -9.3432  -9.2919  -9.2898
    -9.2813  -9.2690  -9.2452  -9.2365  -9.1905  -9.1813  -9.1768  -9.1289
    -9.1211  -9.1106  -8.2506  -8.2332  -7.6445  -7.6365  -7.4791  -7.4650
    -7.4407  -7.4279  -7.4145  -7.4129  -7.4046  -7.4013  -7.3888  -7.3808
    -7.3770  -7.3747  -5.9603  -5.8723  -5.8504  -5.7670  -5.5079  -5.4961
    -5.3341  -5.3150  -5.3042  -5.2952  -5.2430  -5.2396  -5.2326  -5.2234
    -5.0428  -4.8589  -4.3297  -4.3169  -3.7944  -3.7889  -3.1889  -3.1876
    -3.1523  -3.1496  -3.1310  -3.1215  -3.1112  -3.1069  -3.0862  -3.0835
    -3.0669  -3.0631  -1.0574  -1.0229  -1.0144  -0.9649  -0.9431  -0.9249
    -0.9149  -0.8513  -0.5875  -0.5720  -0.5481  -0.4923  -0.4491  -0.3558
    -0.0023   0.0562   0.1178   0.1276   0.1808   0.1973   0.2152   0.2465
     0.2824   0.3059   0.3631   0.3753   0.4039   0.5142   0.5481   0.5802
     0.6074   0.6418   0.7452   0.7497   0.7805   0.7834   0.8028   0.8298
     0.8571   0.8811   0.8984   0.9050   0.9288   0.9354   0.9753   0.9906
     1.0058   1.0275   1.0292   1.0494   1.0640   1.0791   1.1088   1.1164
     1.1261   1.1723   1.1812   1.2286   1.2509   1.2540   1.2608   1.2999
     1.3359   1.3395   1.3614   1.3959   1.4273   1.4588   1.4658   1.4935
     1.4966   1.6040   1.7094   1.7858

          k =-0.1250-0.3750 0.3750 (312762 PWs)   bands (ev):

   -18.4167 -18.4115 -18.0319 -18.0317 -17.9781 -17.9773 -17.9684 -17.9590
   -16.2584 -16.2534 -14.4314 -14.4291 -14.4257 -14.4221 -14.4212 -14.4206
   -14.4199 -14.4186 -14.4168 -14.4145 -14.4134 -14.4106 -14.4074 -14.4068
   -14.4056 -14.3986 -14.3905 -14.3885 -14.3870 -14.3856 -14.3850 -14.3840
   -14.3827 -14.3811 -14.3798 -14.3798 -14.3796 -14.3789 -14.3775 -14.3771
   -14.3745 -14.3744 -14.3738 -14.3731 -14.3708 -14.3699 -14.3696 -14.3685
   -14.3630 -14.3592 -10.9658 -10.9653 -10.9016 -10.9015 -10.8947 -10.8837
   -10.1954 -10.1818  -9.7369  -9.6854  -9.6635  -9.6079  -9.5896  -9.5470
    -9.5189  -9.4891  -9.3350  -9.3209  -9.3100  -9.3013  -9.2977  -9.2835
    -9.2693  -9.2642  -9.2516  -9.2484  -9.2143  -9.2029  -9.1743  -9.1499
    -9.1226  -9.1164  -8.2507  -8.2333  -7.6445  -7.6365  -7.4775  -7.4629
    -7.4401  -7.4274  -7.4165  -7.4138  -7.4047  -7.4013  -7.3890  -7.3808
    -7.3774  -7.3750  -5.8741  -5.8541  -5.8363  -5.6634  -5.6406  -5.4663
    -5.3865  -5.3073  -5.3018  -5.2700  -5.2430  -5.2354  -5.2278  -5.1832
    -5.1712  -5.0044  -4.3297  -4.3169  -3.7942  -3.7887  -3.1882  -3.1875
    -3.1511  -3.1493  -3.1315  -3.1213  -3.1118  -3.1061  -3.0866  -3.0825
    -3.0654  -3.0637  -0.9750  -0.9554  -0.9148  -0.8911  -0.7263  -0.7138
    -0.6619  -0.6362  -0.5512  -0.5227  -0.5067  -0.4642  -0.3700  -0.3487
    -0.0882  -0.0179   0.0219   0.0674   0.0977   0.1205   0.1343   0.1978
     0.2431   0.2507   0.3004   0.3276   0.3981   0.4291   0.5053   0.5307
     0.5374   0.5429   0.5688   0.5726   0.6764   0.6828   0.7465   0.7577
     0.8018   0.8209   0.8832   0.8852   0.9249   0.9411   0.9970   1.0299
     1.0474   1.0641   1.0870   1.0916   1.1142   1.1223   1.1411   1.1462
     1.1658   1.1792   1.2031   1.2124   1.2364   1.2423   1.2482   1.2725
     1.2877   1.3178   1.3330   1.3467   1.3628   1.3979   1.4631   1.4803
     1.4957   1.5333   1.5526   1.5714

          k =-0.1250 0.3750-0.3750 (312762 PWs)   bands (ev):

   -18.4167 -18.4115 -18.0319 -18.0317 -17.9781 -17.9773 -17.9684 -17.9590
   -16.2584 -16.2534 -14.4314 -14.4291 -14.4257 -14.4221 -14.4212 -14.4206
   -14.4199 -14.4186 -14.4168 -14.4145 -14.4134 -14.4106 -14.4074 -14.4067
   -14.4056 -14.3986 -14.3905 -14.3885 -14.3870 -14.3856 -14.3850 -14.3840
   -14.3827 -14.3811 -14.3798 -14.3798 -14.3796 -14.3789 -14.3775 -14.3771
   -14.3745 -14.3744 -14.3738 -14.3731 -14.3708 -14.3699 -14.3696 -14.3685
   -14.3630 -14.3592 -10.9659 -10.9653 -10.9016 -10.9015 -10.8947 -10.8837
   -10.1954 -10.1818  -9.7412  -9.6833  -9.6611  -9.6049  -9.5866  -9.5502
    -9.5194  -9.4923  -9.3274  -9.3231  -9.3118  -9.3089  -9.2935  -9.2897
    -9.2686  -9.2593  -9.2563  -9.2460  -9.2127  -9.2012  -9.1732  -9.1509
    -9.1230  -9.1162  -8.2507  -8.2333  -7.6445  -7.6365  -7.4775  -7.4629
    -7.4401  -7.4274  -7.4164  -7.4139  -7.4050  -7.4011  -7.3889  -7.3807
    -7.3775  -7.3749  -5.8742  -5.8541  -5.8357  -5.6630  -5.6405  -5.4687
    -5.3894  -5.3080  -5.3006  -5.2703  -5.2419  -5.2338  -5.2269  -5.1830
    -5.1703  -5.0046  -4.3297  -4.3169  -3.7942  -3.7887  -3.1879  -3.1876
    -3.1514  -3.1493  -3.1315  -3.1214  -3.1118  -3.1063  -3.0867  -3.0824
    -3.0654  -3.0637  -0.9956  -0.9650  -0.9160  -0.8832  -0.7296  -0.7104
    -0.6547  -0.6194  -0.5488  -0.5087  -0.4946  -0.4665  -0.3712  -0.3400
    -0.0888  -0.0275   0.0081   0.0624   0.0863   0.1134   0.1432   0.2036
     0.2244   0.2509   0.3064   0.3362   0.3924   0.4251   0.4955   0.5141
     0.5513   0.5542   0.5695   0.5717   0.6706   0.6876   0.7375   0.7603
     0.8054   0.8122   0.8748   0.8818   0.9712   0.9848   0.9922   1.0089
     1.0416   1.0507   1.0784   1.0821   1.1188   1.1239   1.1466   1.1505
     1.1678   1.1692   1.2028   1.2062   1.2232   1.2561   1.2621   1.2747
     1.2804   1.3144   1.3398   1.3516   1.3651   1.3865   1.4326   1.4408
     1.4791   1.5206   1.6049   1.6300

          k = 0.1250-0.3750-0.3750 (312762 PWs)   bands (ev):

   -18.4167 -18.4115 -18.0319 -18.0317 -17.9781 -17.9773 -17.9684 -17.9590
   -16.2584 -16.2534 -14.4314 -14.4291 -14.4257 -14.4221 -14.4212 -14.4206
   -14.4200 -14.4186 -14.4168 -14.4145 -14.4134 -14.4106 -14.4074 -14.4067
   -14.4056 -14.3986 -14.3905 -14.3885 -14.3870 -14.3856 -14.3850 -14.3840
   -14.3827 -14.3811 -14.3798 -14.3798 -14.3796 -14.3789 -14.3775 -14.3771
   -14.3745 -14.3744 -14.3738 -14.3731 -14.3708 -14.3699 -14.3696 -14.3685
   -14.3630 -14.3592 -10.9660 -10.9653 -10.9015 -10.9015 -10.8947 -10.8837
   -10.1954 -10.1818  -9.7418  -9.6832  -9.6586  -9.6077  -9.5880  -9.5456
    -9.5213  -9.4932  -9.3286  -9.3206  -9.3120  -9.3072  -9.2944  -9.2896
    -9.2723  -9.2574  -9.2568  -9.2447  -9.2144  -9.1990  -9.1763  -9.1483
    -9.1239  -9.1159  -8.2507  -8.2333  -7.6445  -7.6365  -7.4775  -7.4629
    -7.4402  -7.4274  -7.4164  -7.4140  -7.4049  -7.4010  -7.3890  -7.3807
    -7.3775  -7.3749  -5.8749  -5.8546  -5.8347  -5.6645  -5.6379  -5.4697
    -5.3901  -5.3083  -5.3014  -5.2677  -5.2414  -5.2344  -5.2272  -5.1862
    -5.1667  -5.0055  -4.3297  -4.3169  -3.7942  -3.7887  -3.1882  -3.1875
    -3.1511  -3.1492  -3.1316  -3.1212  -3.1121  -3.1060  -3.0867  -3.0823
    -3.0661  -3.0633  -0.9955  -0.9643  -0.9156  -0.8843  -0.7080  -0.7062
    -0.6516  -0.6282  -0.5337  -0.5142  -0.5053  -0.4919  -0.3813  -0.3618
    -0.0665  -0.0138   0.0229   0.0756   0.0955   0.1143   0.1321   0.1814
     0.2315   0.2489   0.3094   0.3327   0.3943   0.4206   0.5003   0.5148
     0.5492   0.5526   0.5646   0.5745   0.6690   0.6792   0.7420   0.7596
     0.8013   0.8149   0.8731   0.8862   0.9692   0.9878   0.9953   1.0073
     1.0389   1.0441   1.0833   1.0853   1.1107   1.1277   1.1503   1.1566
     1.1698   1.1773   1.1972   1.2023   1.2202   1.2538   1.2651   1.2756
     1.2904   1.3106   1.3311   1.3428   1.3713   1.3928   1.4299   1.4423
     1.4710   1.5255   1.6065   1.6250

          k = 0.3750 0.1250-0.3750 (312762 PWs)   bands (ev):

   -18.4167 -18.4115 -18.0319 -18.0317 -17.9781 -17.9773 -17.9685 -17.9590
   -16.2584 -16.2534 -14.4316 -14.4293 -14.4258 -14.4221 -14.4218 -14.4210
   -14.4192 -14.4182 -14.4162 -14.4137 -14.4124 -14.4114 -14.4085 -14.4073
   -14.4054 -14.3983 -14.3905 -14.3885 -14.3870 -14.3856 -14.3850 -14.3840
   -14.3827 -14.3811 -14.3798 -14.3797 -14.3796 -14.3789 -14.3776 -14.3771
   -14.3744 -14.3744 -14.3739 -14.3731 -14.3708 -14.3699 -14.3696 -14.3685
   -14.3630 -14.3592 -10.9660 -10.9655 -10.9014 -10.9008 -10.8953 -10.8838
   -10.1943 -10.1807  -9.7421  -9.6957  -9.6680  -9.6191  -9.5733  -9.5317
    -9.5075  -9.4815  -9.3479  -9.3395  -9.3232  -9.3169  -9.2981  -9.2920
    -9.2603  -9.2431  -9.2391  -9.2330  -9.2144  -9.1888  -9.1798  -9.1625
    -9.1259  -9.1191  -8.2510  -8.2337  -7.6443  -7.6364  -7.4775  -7.4630
    -7.4400  -7.4272  -7.4162  -7.4140  -7.4045  -7.4010  -7.3887  -7.3803
    -7.3777  -7.3758  -5.8734  -5.8518  -5.8397  -5.6577  -5.6460  -5.4669
    -5.3875  -5.3085  -5.3005  -5.2535  -5.2496  -5.2431  -5.2277  -5.1872
    -5.1681  -5.0053  -4.3300  -4.3172  -3.7943  -3.7887  -3.1894  -3.1875
    -3.1528  -3.1494  -3.1244  -3.1188  -3.1155  -3.1041  -3.0894  -3.0839
    -3.0654  -3.0637  -0.9861  -0.9596  -0.9292  -0.9052  -0.7275  -0.7070
    -0.6602  -0.6200  -0.5478  -0.5112  -0.4633  -0.4601  -0.3908  -0.3832
    -0.0435  -0.0157   0.0526   0.0553   0.0975   0.1316   0.1490   0.1796
     0.2253   0.2316   0.3028   0.3057   0.3986   0.4036   0.5031   0.5102
     0.5478   0.5544   0.6151   0.6323   0.7017   0.7095   0.7442   0.7670
     0.7920   0.8130   0.8432   0.8454   0.9017   0.9227   1.0074   1.0280
     1.0499   1.0588   1.0749   1.0853   1.1051   1.1136   1.1396   1.1455
     1.1690   1.2035   1.2067   1.2231   1.2437   1.2520   1.2563   1.2641
     1.2971   1.3065   1.3350   1.3437   1.3505   1.3638   1.4247   1.4506
     1.5039   1.5408   1.5861   1.5974

          k =-0.3750-0.1250-0.3750 (312762 PWs)   bands (ev):

   -18.4167 -18.4115 -18.0319 -18.0317 -17.9781 -17.9773 -17.9685 -17.9590
   -16.2584 -16.2534 -14.4316 -14.4293 -14.4258 -14.4221 -14.4218 -14.4210
   -14.4192 -14.4182 -14.4162 -14.4137 -14.4124 -14.4114 -14.4085 -14.4073
   -14.4054 -14.3983 -14.3905 -14.3885 -14.3870 -14.3856 -14.3850 -14.3840
   -14.3827 -14.3811 -14.3798 -14.3797 -14.3796 -14.3789 -14.3776 -14.3771
   -14.3744 -14.3744 -14.3739 -14.3731 -14.3708 -14.3699 -14.3696 -14.3685
   -14.3630 -14.3592 -10.9660 -10.9655 -10.9014 -10.9008 -10.8953 -10.8838
   -10.1942 -10.1807  -9.7431  -9.6933  -9.6698  -9.6183  -9.5728  -9.5307
    -9.5097  -9.4822  -9.3444  -9.3365  -9.3266  -9.3220  -9.2957  -9.2899
    -9.2604  -9.2462  -9.2404  -9.2301  -9.2148  -9.1894  -9.1802  -9.1609
    -9.1257  -9.1195  -8.2510  -8.2337  -7.6443  -7.6364  -7.4775  -7.4630
    -7.4400  -7.4272  -7.4164  -7.4139  -7.4043  -7.4012  -7.3888  -7.3801
    -7.3778  -7.3759  -5.8737  -5.8522  -5.8393  -5.6568  -5.6468  -5.4665
    -5.3872  -5.3085  -5.3005  -5.2550  -5.2481  -5.2429  -5.2278  -5.1882
    -5.1667  -5.0059  -4.3300  -4.3172  -3.7943  -3.7887  -3.1890  -3.1876
    -3.1533  -3.1491  -3.1244  -3.1188  -3.1154  -3.1042  -3.0895  -3.0838
    -3.0653  -3.0637  -0.9800  -0.9579  -0.9292  -0.9069  -0.7289  -0.7149
    -0.6597  -0.6220  -0.5428  -0.5053  -0.4627  -0.4580  -0.3995  -0.3904
    -0.0497  -0.0176   0.0543   0.0691   0.1016   0.1312   0.1438   0.1763
     0.2224   0.2414   0.3003   0.3086   0.3983   0.4029   0.5027   0.5097
     0.5512   0.5567   0.6229   0.6316   0.7045   0.7085   0.7339   0.7594
     0.7912   0.8107   0.8461   0.8519   0.9006   0.9206   1.0140   1.0253
     1.0523   1.0590   1.0757   1.0851   1.1017   1.1099   1.1406   1.1429
     1.1723   1.1985   1.2106   1.2233   1.2422   1.2497   1.2574   1.2668
     1.2953   1.3109   1.3274   1.3408   1.3558   1.3662   1.4251   1.4512
     1.5040   1.5380   1.5862   1.5960

          k = 0.3750-0.1250 0.3750 (312762 PWs)   bands (ev):

   -18.4167 -18.4115 -18.0319 -18.0317 -17.9781 -17.9773 -17.9685 -17.9590
   -16.2584 -16.2534 -14.4316 -14.4293 -14.4258 -14.4221 -14.4218 -14.4210
   -14.4192 -14.4182 -14.4162 -14.4137 -14.4124 -14.4114 -14.4085 -14.4073
   -14.4054 -14.3983 -14.3905 -14.3885 -14.3870 -14.3856 -14.3850 -14.3840
   -14.3827 -14.3811 -14.3798 -14.3797 -14.3796 -14.3789 -14.3776 -14.3771
   -14.3744 -14.3744 -14.3739 -14.3731 -14.3708 -14.3699 -14.3696 -14.3685
   -14.3630 -14.3592 -10.9662 -10.9656 -10.9013 -10.9008 -10.8952 -10.8838
   -10.1943 -10.1807  -9.7470  -9.6887  -9.6708  -9.6155  -9.5697  -9.5364
    -9.5070  -9.4843  -9.3436  -9.3398  -9.3258  -9.3203  -9.2961  -9.2934
    -9.2608  -9.2461  -9.2413  -9.2270  -9.2138  -9.1877  -9.1784  -9.1637
    -9.1257  -9.1194  -8.2510  -8.2336  -7.6443  -7.6364  -7.4775  -7.4630
    -7.4400  -7.4272  -7.4163  -7.4140  -7.4046  -7.4009  -7.3888  -7.3800
    -7.3779  -7.3758  -5.8735  -5.8518  -5.8389  -5.6562  -5.6470  -5.4693
    -5.3902  -5.3095  -5.2994  -5.2542  -5.2474  -5.2420  -5.2272  -5.1875
    -5.1661  -5.0056  -4.3300  -4.3172  -3.7943  -3.7887  -3.1889  -3.1877
    -3.1533  -3.1491  -3.1244  -3.1189  -3.1156  -3.1042  -3.0894  -3.0839
    -3.0655  -3.0635  -1.0043  -0.9639  -0.9365  -0.8983  -0.7225  -0.7191
    -0.6430  -0.6146  -0.5303  -0.5055  -0.4550  -0.4446  -0.3907  -0.3879
    -0.0547  -0.0279   0.0497   0.0784   0.0870   0.1061   0.1526   0.1621
     0.2239   0.2301   0.3119   0.3135   0.3930   0.4009   0.4956   0.5054
     0.5560   0.5631   0.6184   0.6288   0.6895   0.7020   0.7523   0.7578
     0.7963   0.8007   0.8385   0.8451   0.9549   0.9709   0.9858   0.9984
     1.0455   1.0486   1.0789   1.0817   1.1017   1.1118   1.1381   1.1541
     1.1880   1.1967   1.2037   1.2188   1.2371   1.2551   1.2673   1.2704
     1.2934   1.3149   1.3202   1.3318   1.3528   1.3603   1.4067   1.4216
     1.4926   1.5384   1.6229   1.6403

          k =-0.3750 0.1250 0.3750 (312762 PWs)   bands (ev):

   -18.4167 -18.4115 -18.0319 -18.0317 -17.9781 -17.9773 -17.9685 -17.9590
   -16.2584 -16.2534 -14.4316 -14.4293 -14.4258 -14.4221 -14.4218 -14.4210
   -14.4192 -14.4182 -14.4162 -14.4137 -14.4124 -14.4114 -14.4085 -14.4073
   -14.4054 -14.3983 -14.3905 -14.3885 -14.3870 -14.3856 -14.3850 -14.3840
   -14.3827 -14.3811 -14.3798 -14.3797 -14.3796 -14.3789 -14.3776 -14.3771
   -14.3744 -14.3744 -14.3739 -14.3731 -14.3708 -14.3699 -14.3696 -14.3685
   -14.3630 -14.3592 -10.9662 -10.9656 -10.9013 -10.9008 -10.8952 -10.8838
   -10.1943 -10.1807  -9.7467  -9.6919  -9.6680  -9.6152  -9.5686  -9.5368
    -9.5073  -9.4860  -9.3398  -9.3370  -9.3269  -9.3243  -9.2981  -9.2938
    -9.2595  -9.2440  -9.2404  -9.2310  -9.2122  -9.1868  -9.1795  -9.1642
    -9.1255  -9.1192  -8.2510  -8.2336  -7.6443  -7.6364  -7.4775  -7.4630
    -7.4400  -7.4272  -7.4163  -7.4140  -7.4045  -7.4009  -7.3889  -7.3801
    -7.3778  -7.3758  -5.8737  -5.8522  -5.8384  -5.6572  -5.6461  -5.4691
    -5.3898  -5.3095  -5.2996  -5.2532  -5.2485  -5.2420  -5.2271  -5.1862
    -5.1677  -5.0058  -4.3300  -4.3172  -3.7943  -3.7887  -3.1895  -3.1874
    -3.1526  -3.1495  -3.1245  -3.1187  -3.1156  -3.1042  -3.0895  -3.0838
    -3.0658  -3.0634  -1.0022  -0.9631  -0.9333  -0.8980  -0.7250  -0.7120
    -0.6488  -0.6086  -0.5431  -0.5082  -0.4623  -0.4510  -0.3881  -0.3831
    -0.0470  -0.0214   0.0462   0.0722   0.0805   0.1067   0.1578   0.1762
     0.2204   0.2305   0.3049   0.3213   0.3927   0.3992   0.4977   0.5050
     0.5541   0.5617   0.6232   0.6273   0.6888   0.7066   0.7461   0.7538
     0.7964   0.7996   0.8377   0.8522   0.9516   0.9735   0.9882   0.9967
     1.0389   1.0577   1.0815   1.0879   1.0981   1.1011   1.1387   1.1542
     1.1763   1.2022   1.2064   1.2239   1.2423   1.2536   1.2695   1.2743
     1.2966   1.3117   1.3173   1.3266   1.3518   1.3582   1.4093   1.4231
     1.4907   1.5358   1.6231   1.6375

          k = 0.3750-0.3750 0.1250 (312762 PWs)   bands (ev):

   -18.4167 -18.4115 -18.0319 -18.0317 -17.9781 -17.9773 -17.9685 -17.9590
   -16.2584 -16.2534 -14.4335 -14.4308 -14.4232 -14.4220 -14.4210 -14.4199
   -14.4196 -14.4181 -14.4160 -14.4126 -14.4122 -14.4118 -14.4088 -14.4087
   -14.4048 -14.3992 -14.3905 -14.3885 -14.3870 -14.3857 -14.3849 -14.3840
   -14.3828 -14.3811 -14.3798 -14.3798 -14.3797 -14.3789 -14.3775 -14.3771
   -14.3744 -14.3744 -14.3739 -14.3731 -14.3708 -14.3699 -14.3696 -14.3685
   -14.3630 -14.3592 -10.9667 -10.9652 -10.9012 -10.9005 -10.8954 -10.8839
   -10.1946 -10.1810  -9.7535  -9.6953  -9.6479  -9.6246  -9.5591  -9.5125
    -9.4835  -9.4618  -9.4100  -9.4038  -9.3709  -9.3635  -9.2661  -9.2538
    -9.2404  -9.2284  -9.2157  -9.2097  -9.1949  -9.1812  -9.1758  -9.1614
    -9.1499  -9.1381  -8.2508  -8.2334  -7.6443  -7.6364  -7.4792  -7.4650
    -7.4404  -7.4274  -7.4147  -7.4128  -7.4045  -7.4012  -7.3889  -7.3802
    -7.3773  -7.3752  -5.8734  -5.8517  -5.8368  -5.6628  -5.6324  -5.4589
    -5.3937  -5.3197  -5.3038  -5.2681  -5.2427  -5.2396  -5.2277  -5.1805
    -5.1669  -5.0070  -4.3299  -4.3171  -3.7945  -3.7890  -3.1883  -3.1874
    -3.1518  -3.1493  -3.1259  -3.1193  -3.1158  -3.1058  -3.0896  -3.0839
    -3.0677  -3.0623  -1.0485  -1.0124  -0.9552  -0.9394  -0.7427  -0.6985
    -0.6402  -0.5825  -0.5218  -0.4844  -0.4523  -0.4087  -0.3447  -0.2821
    -0.1084   0.0054   0.0474   0.0700   0.1347   0.1377   0.1690   0.1827
     0.2168   0.2319   0.2665   0.2822   0.3614   0.3795   0.4572   0.4783
     0.5206   0.6019   0.6437   0.7103   0.7255   0.7715   0.7946   0.8000
     0.8215   0.8261   0.8585   0.8848   0.9111   0.9156   0.9306   0.9676
     1.0010   1.0125   1.0289   1.0563   1.0683   1.0781   1.0878   1.1101
     1.1245   1.1468   1.2014   1.2355   1.2562   1.2867   1.2992   1.3093
     1.3300   1.3419   1.3501   1.3729   1.4051   1.4114   1.4206   1.4440
     1.4482   1.5119   1.5244   1.5749

          k =-0.3750-0.3750-0.1250 (312762 PWs)   bands (ev):

   -18.4167 -18.4115 -18.0319 -18.0317 -17.9781 -17.9773 -17.9685 -17.9590
   -16.2584 -16.2534 -14.4335 -14.4308 -14.4232 -14.4220 -14.4210 -14.4199
   -14.4196 -14.4181 -14.4160 -14.4126 -14.4122 -14.4118 -14.4088 -14.4086
   -14.4048 -14.3992 -14.3905 -14.3885 -14.3870 -14.3857 -14.3849 -14.3840
   -14.3828 -14.3811 -14.3798 -14.3798 -14.3797 -14.3789 -14.3775 -14.3771
   -14.3744 -14.3744 -14.3739 -14.3731 -14.3708 -14.3699 -14.3696 -14.3685
   -14.3630 -14.3592 -10.9665 -10.9653 -10.9013 -10.9005 -10.8954 -10.8839
[...]
   -14.3434 -14.3421 -14.3414 -14.3414 -14.3402 -14.3402 -14.3393 -14.3387
   -14.3384 -14.3373 -14.3356 -14.3331 -14.3198 -14.3156 -14.3125 -14.3097
   -14.3079 -14.3055 -10.8273 -10.8244 -10.8202 -10.8184 -10.7589 -10.7568
   -10.0452  -9.9877  -9.7379  -9.7105  -9.6632  -9.6215  -9.5460  -9.5126
    -9.4733  -9.4698  -9.4125  -9.4091  -9.3718  -9.3700  -9.2750  -9.2541
    -9.2193  -9.2177  -9.1967  -9.1880  -9.1784  -9.1628  -9.1549  -9.1180
    -9.1081  -9.0919  -8.0212  -7.9675  -7.3993  -7.3416  -7.3362  -7.3318
    -7.3290  -7.3193  -7.2906  -7.2782  -7.1350  -7.1314  -7.1234  -7.1208
    -7.1057  -7.1032  -5.8187  -5.6566  -5.6341  -5.6125  -5.6054  -5.4702
    -5.3239  -5.1947  -5.1850  -5.1681  -5.1612  -5.1429  -5.1188  -5.1138
    -5.0885  -4.9512  -4.1803  -4.0933  -3.5776  -3.5503  -3.0939  -3.0908
    -3.0883  -3.0841  -3.0274  -3.0141  -3.0089  -2.9997  -2.9954  -2.9821
    -2.9465  -2.9267  -1.0705  -1.0655  -1.0134  -0.9869  -0.6600  -0.5895
    -0.5851  -0.5327  -0.4965  -0.4856  -0.4623  -0.4044  -0.3161  -0.2733
    -0.0154   0.0751   0.0950   0.1162   0.1399   0.1707   0.1962   0.2252
     0.2307   0.2883   0.2953   0.3461   0.3470   0.4084   0.4525   0.5065
     0.5491   0.5841   0.6280   0.6448   0.6947   0.7570   0.7921   0.7994
     0.8203   0.8528   0.8795   0.9058   0.9333   0.9482   0.9630   0.9696
     0.9933   1.0046   1.0530   1.0581   1.0948   1.0952   1.1209   1.1326
     1.1458   1.1734   1.2077   1.2741   1.2962   1.3029   1.3340   1.3451
     1.3637   1.3813   1.3969   1.4337   1.4389   1.4837   1.5070   1.5335
     1.5371   1.5934   1.6202   1.6294

          k = 0.3723 0.3765-0.1264 (312762 PWs)   bands (ev):

   -18.2052 -18.1570 -17.7956 -17.7909 -17.7864 -17.7836 -17.7653 -17.7607
   -15.9846 -15.9431 -14.4012 -14.3917 -14.3895 -14.3883 -14.3856 -14.3817
   -14.3797 -14.3774 -14.3770 -14.3717 -14.3709 -14.3677 -14.3588 -14.3567
   -14.3550 -14.3522 -14.3511 -14.3501 -14.3498 -14.3460 -14.3449 -14.3443
   -14.3434 -14.3421 -14.3414 -14.3414 -14.3402 -14.3402 -14.3393 -14.3387
   -14.3384 -14.3373 -14.3356 -14.3331 -14.3198 -14.3156 -14.3125 -14.3097
   -14.3079 -14.3055 -10.8273 -10.8244 -10.8202 -10.8184 -10.7589 -10.7568
   -10.0452  -9.9877  -9.7361  -9.7105  -9.6653  -9.6231  -9.5475  -9.5124
    -9.4702  -9.4672  -9.4133  -9.4019  -9.3789  -9.3745  -9.2736  -9.2514
    -9.2188  -9.2157  -9.1984  -9.1893  -9.1843  -9.1582  -9.1529  -9.1193
    -9.1090  -9.0914  -8.0212  -7.9675  -7.3993  -7.3416  -7.3363  -7.3319
    -7.3289  -7.3192  -7.2906  -7.2782  -7.1348  -7.1315  -7.1233  -7.1211
    -7.1057  -7.1032  -5.8180  -5.6563  -5.6349  -5.6138  -5.6045  -5.4699
    -5.3235  -5.1948  -5.1857  -5.1680  -5.1612  -5.1430  -5.1189  -5.1139
    -5.0887  -4.9504  -4.1803  -4.0933  -3.5776  -3.5503  -3.0942  -3.0908
    -3.0880  -3.0838  -3.0274  -3.0139  -3.0090  -2.9991  -2.9958  -2.9826
    -2.9465  -2.9267  -1.0708  -1.0660  -1.0132  -0.9886  -0.6604  -0.5872
    -0.5835  -0.5311  -0.4959  -0.4856  -0.4704  -0.4004  -0.3110  -0.2747
    -0.0181   0.0751   0.0962   0.1184   0.1543   0.1726   0.1935   0.2135
     0.2197   0.2863   0.2978   0.3511   0.3561   0.4015   0.4486   0.5066
     0.5519   0.5822   0.6292   0.6467   0.6882   0.7686   0.7909   0.7958
     0.8201   0.8674   0.8782   0.9013   0.9033   0.9402   0.9520   0.9804
     1.0085   1.0260   1.0456   1.0489   1.0900   1.0959   1.1180   1.1329
     1.1544   1.1745   1.2088   1.2660   1.3019   1.3123   1.3243   1.3394
     1.3740   1.3913   1.4136   1.4272   1.4336   1.4784   1.5105   1.5224
     1.5355   1.5934   1.6176   1.6329

          k =-0.3723 0.3765 0.1264 (312762 PWs)   bands (ev):

   -18.2052 -18.1570 -17.7956 -17.7909 -17.7864 -17.7836 -17.7653 -17.7607
   -15.9846 -15.9431 -14.4012 -14.3917 -14.3895 -14.3883 -14.3856 -14.3817
   -14.3797 -14.3774 -14.3770 -14.3717 -14.3709 -14.3677 -14.3588 -14.3567
   -14.3550 -14.3522 -14.3511 -14.3501 -14.3498 -14.3460 -14.3449 -14.3443
   -14.3434 -14.3421 -14.3414 -14.3414 -14.3402 -14.3402 -14.3393 -14.3387
   -14.3384 -14.3373 -14.3356 -14.3331 -14.3198 -14.3156 -14.3125 -14.3097
   -14.3079 -14.3055 -10.8274 -10.8245 -10.8203 -10.8183 -10.7588 -10.7566
   -10.0454  -9.9878  -9.7431  -9.7043  -9.6541  -9.6322  -9.5411  -9.5150
    -9.4785  -9.4714  -9.4124  -9.4033  -9.3755  -9.3657  -9.2760  -9.2611
    -9.2261  -9.2030  -9.1949  -9.1912  -9.1731  -9.1644  -9.1445  -9.1371
    -9.1035  -9.0916  -8.0212  -7.9674  -7.3993  -7.3417  -7.3362  -7.3319
    -7.3287  -7.3194  -7.2905  -7.2783  -7.1348  -7.1316  -7.1237  -7.1207
    -7.1054  -7.1035  -5.8113  -5.6702  -5.6353  -5.6144  -5.6044  -5.4618
    -5.3020  -5.2271  -5.1847  -5.1833  -5.1657  -5.1402  -5.1140  -5.1071
    -5.0721  -4.9515  -4.1803  -4.0933  -3.5776  -3.5503  -3.0942  -3.0915
    -3.0884  -3.0831  -3.0274  -3.0137  -3.0091  -2.9992  -2.9957  -2.9827
    -2.9464  -2.9266  -1.0817  -1.0422  -1.0162  -0.9936  -0.8078  -0.6846
    -0.5536  -0.4699  -0.4627  -0.4035  -0.3643  -0.2832  -0.2496  -0.2059
    -0.1101  -0.0384  -0.0017   0.0572   0.1041   0.1387   0.1781   0.2110
     0.2507   0.2610   0.3094   0.3164   0.3954   0.4461   0.4505   0.4806
     0.4968   0.6466   0.6596   0.7146   0.7167   0.7644   0.7892   0.7958
     0.8355   0.8393   0.8647   0.9003   0.9170   0.9493   0.9524   0.9686
     0.9841   1.0128   1.0365   1.0715   1.0779   1.1085   1.1120   1.1483
     1.1514   1.1705   1.2456   1.2564   1.2961   1.3168   1.3271   1.3335
     1.3540   1.3734   1.4137   1.4181   1.4557   1.4644   1.4820   1.5189
     1.5287   1.5956   1.6346   1.6965

          k =-0.3723-0.3765 0.3793 (312804 PWs)   bands (ev):

   -18.2052 -18.1570 -17.7956 -17.7909 -17.7864 -17.7836 -17.7653 -17.7607
   -15.9846 -15.9431 -14.3993 -14.3891 -14.3887 -14.3876 -14.3870 -14.3824
   -14.3818 -14.3774 -14.3773 -14.3717 -14.3709 -14.3677 -14.3597 -14.3567
   -14.3558 -14.3522 -14.3510 -14.3501 -14.3497 -14.3460 -14.3449 -14.3443
   -14.3435 -14.3421 -14.3414 -14.3414 -14.3402 -14.3402 -14.3393 -14.3387
   -14.3384 -14.3373 -14.3356 -14.3331 -14.3198 -14.3156 -14.3125 -14.3097
   -14.3079 -14.3055 -10.8270 -10.8245 -10.8202 -10.8184 -10.7590 -10.7569
   -10.0445  -9.9864  -9.7029  -9.6737  -9.6623  -9.6049  -9.6034  -9.6000
    -9.5422  -9.5282  -9.3442  -9.3335  -9.3046  -9.3021  -9.2872  -9.2630
    -9.2329  -9.2282  -9.2092  -9.2060  -9.1796  -9.1637  -9.1514  -9.1356
    -9.1082  -9.0987  -8.0213  -7.9675  -7.3993  -7.3417  -7.3310  -7.3283
    -7.3246  -7.3191  -7.2964  -7.2827  -7.1346  -7.1300  -7.1234  -7.1183
    -7.1077  -7.1063  -5.6896  -5.6375  -5.6097  -5.5228  -5.4958  -5.4691
    -5.3520  -5.3203  -5.2772  -5.2080  -5.1723  -5.1659  -5.1606  -5.1285
    -5.1067  -5.0833  -4.1804  -4.0934  -3.5773  -3.5499  -3.0924  -3.0903
    -3.0887  -3.0840  -3.0273  -3.0136  -3.0091  -2.9989  -2.9950  -2.9821
    -2.9467  -2.9268  -0.7363  -0.7309  -0.6622  -0.6271  -0.6014  -0.5761
    -0.5331  -0.5242  -0.5014  -0.4794  -0.4257  -0.4136  -0.3100  -0.2816
    -0.0362  -0.0177   0.0284   0.0640   0.0786   0.1199   0.1349   0.1394
     0.1712   0.1786   0.2094   0.2105   0.4390   0.4748   0.4956   0.5252
     0.5281   0.5517   0.5998   0.6134   0.6347   0.6490   0.6972   0.7020
     0.7489   0.7563   0.7855   0.7875   0.8290   0.8563   0.8772   0.9168
     0.9425   0.9829   1.0140   1.0912   1.1472   1.1512   1.1704   1.1760
     1.2031   1.2108   1.2212   1.2420   1.2505   1.2549   1.2726   1.2882
     1.3334   1.3379   1.3654   1.3748   1.4005   1.4071   1.4698   1.4750
     1.5162   1.5244   1.5423   1.5529

          k =-0.3723 0.3765-0.3793 (312804 PWs)   bands (ev):

   -18.2052 -18.1570 -17.7956 -17.7909 -17.7864 -17.7836 -17.7653 -17.7607
   -15.9846 -15.9431 -14.3993 -14.3891 -14.3887 -14.3876 -14.3870 -14.3824
   -14.3818 -14.3774 -14.3773 -14.3717 -14.3709 -14.3678 -14.3597 -14.3567
   -14.3558 -14.3522 -14.3510 -14.3501 -14.3497 -14.3460 -14.3449 -14.3443
   -14.3435 -14.3421 -14.3414 -14.3414 -14.3402 -14.3402 -14.3393 -14.3387
   -14.3384 -14.3373 -14.3356 -14.3331 -14.3198 -14.3156 -14.3125 -14.3097
   -14.3079 -14.3055 -10.8270 -10.8247 -10.8202 -10.8184 -10.7588 -10.7567
   -10.0446  -9.9865  -9.7098  -9.6750  -9.6435  -9.6129  -9.6097  -9.5948
    -9.5437  -9.5276  -9.3417  -9.3374  -9.3058  -9.3015  -9.2836  -9.2661
    -9.2381  -9.2267  -9.2108  -9.2002  -9.1724  -9.1657  -9.1480  -9.1452
    -9.1055  -9.0995  -8.0213  -7.9675  -7.3993  -7.3417  -7.3311  -7.3282
    -7.3247  -7.3192  -7.2963  -7.2828  -7.1347  -7.1302  -7.1232  -7.1182
    -7.1080  -7.1060  -5.6815  -5.6363  -5.6080  -5.5439  -5.4924  -5.4575
    -5.3526  -5.3424  -5.2802  -5.1889  -5.1674  -5.1668  -5.1549  -5.1348
    -5.1039  -5.0871  -4.1804  -4.0934  -3.5773  -3.5499  -3.0915  -3.0907
    -3.0892  -3.0843  -3.0274  -3.0135  -3.0090  -2.9998  -2.9943  -2.9820
    -2.9467  -2.9268  -0.8250  -0.7514  -0.7046  -0.6726  -0.6371  -0.5721
    -0.4767  -0.4644  -0.4368  -0.4132  -0.3443  -0.3042  -0.2103  -0.1895
    -0.1632  -0.1561  -0.0360   0.0160   0.0223   0.0397   0.0952   0.1536
     0.1777   0.2114   0.2173   0.2688   0.4254   0.4351   0.4852   0.5205
     0.5497   0.5714   0.5741   0.6225   0.6421   0.6661   0.6795   0.7052
     0.7156   0.7465   0.7988   0.8134   0.8330   0.8664   0.9183   0.9221
     0.9705   0.9772   1.0289   1.0488   1.1482   1.1508   1.1778   1.1863
     1.2013   1.2115   1.2164   1.2282   1.2487   1.2548   1.2836   1.2902
     1.3282   1.3405   1.3499   1.3653   1.4155   1.4184   1.4416   1.4459
     1.4909   1.4993   1.6136   1.6177

          k = 0.3723-0.3765-0.3793 (312804 PWs)   bands (ev):

   -18.2052 -18.1570 -17.7956 -17.7909 -17.7864 -17.7836 -17.7653 -17.7607
   -15.9846 -15.9431 -14.3993 -14.3891 -14.3887 -14.3876 -14.3870 -14.3824
   -14.3818 -14.3774 -14.3773 -14.3717 -14.3709 -14.3677 -14.3597 -14.3567
   -14.3558 -14.3522 -14.3510 -14.3501 -14.3497 -14.3460 -14.3449 -14.3443
   -14.3435 -14.3421 -14.3414 -14.3414 -14.3402 -14.3402 -14.3393 -14.3387
   -14.3384 -14.3373 -14.3356 -14.3331 -14.3198 -14.3156 -14.3125 -14.3097
   -14.3079 -14.3055 -10.8271 -10.8246 -10.8202 -10.8185 -10.7588 -10.7567
   -10.0447  -9.9865  -9.7093  -9.6729  -9.6509  -9.6124  -9.6023  -9.5950
    -9.5438  -9.5318  -9.3385  -9.3315  -9.3058  -9.3029  -9.2876  -9.2762
    -9.2302  -9.2271  -9.2103  -9.1994  -9.1733  -9.1613  -9.1535  -9.1451
    -9.1061  -9.0980  -8.0213  -7.9675  -7.3993  -7.3418  -7.3310  -7.3283
    -7.3246  -7.3191  -7.2964  -7.2827  -7.1347  -7.1300  -7.1236  -7.1180
    -7.1076  -7.1063  -5.6844  -5.6350  -5.6071  -5.5449  -5.4863  -5.4630
    -5.3569  -5.3326  -5.2819  -5.1907  -5.1685  -5.1664  -5.1554  -5.1345
    -5.1037  -5.0875  -4.1804  -4.0934  -3.5773  -3.5499  -3.0919  -3.0911
    -3.0888  -3.0839  -3.0273  -3.0134  -3.0089  -2.9994  -2.9949  -2.9821
    -2.9466  -2.9267  -0.8108  -0.7479  -0.6956  -0.6674  -0.6113  -0.5798
    -0.5015  -0.4919  -0.4474  -0.4320  -0.3484  -0.3213  -0.2282  -0.1957
    -0.1530  -0.1448  -0.0105   0.0334   0.0487   0.0658   0.0935   0.1311
     0.1809   0.1958   0.2242   0.2652   0.4277   0.4354   0.4825   0.5329
     0.5558   0.5665   0.5862   0.6171   0.6340   0.6627   0.6687   0.7114
     0.7163   0.7290   0.8003   0.8177   0.8432   0.8660   0.9217   0.9293
     0.9646   0.9721   1.0286   1.0425   1.1506   1.1618   1.1762   1.1799
     1.1963   1.2049   1.2311   1.2362   1.2471   1.2595   1.2735   1.2860
     1.3215   1.3412   1.3478   1.3685   1.4109   1.4170   1.4342   1.4461
     1.4989   1.5022   1.6103   1.6175

     highest occupied level (ev):     2.0157

!    total energy              =  -16545.13193545 Ry
     Harris-Foulkes estimate   =  -16545.13193548 Ry
     estimated scf accuracy    <       0.00000003 Ry

     total all-electron energy =   -677464.398805 Ry

     The total energy is the sum of the following terms:

     one-electron contribution =    -894.30883450 Ry
     hartree contribution      =     633.62448277 Ry
     xc contribution           =    -765.56375131 Ry
     ewald contribution        =   -1148.12475516 Ry
     DFT-D3 Dispersion         =      -0.60828505 Ry
     one-center paw contrib.   =  -14370.15079220 Ry

     convergence has been achieved in  11 iterations

     Forces acting on atoms (cartesian axes, Ry/au):

     atom    1 type  1   force =    -0.00065086   -0.00006461    0.00047786
     atom    2 type  1   force =     0.00046732    0.00002286   -0.00086027
     atom    3 type  1   force =     0.00088907    0.00161206   -0.00063649
     atom    4 type  1   force =     0.00061984    0.00118468    0.00000044
     atom    5 type  1   force =     0.00117144    0.00157303    0.00019577
     atom    6 type  1   force =     0.00025748    0.00173956   -0.00038095
     atom    7 type  1   force =    -0.00054346    0.00018395   -0.00108709
     atom    8 type  1   force =     0.00011734   -0.00065105   -0.00040583
     atom    9 type  2   force =     0.00051017   -0.00065960   -0.00121160
     atom   10 type  2   force =    -0.00153951    0.00013762   -0.00172281
     atom   11 type  2   force =    -0.00168566   -0.00292399   -0.00129723
     atom   12 type  2   force =     0.00117761   -0.00020529    0.00094544
     atom   13 type  2   force =    -0.00103184   -0.00017632    0.00180277
     atom   14 type  2   force =     0.00281640    0.00139382   -0.00170933
     atom   15 type  2   force =     0.00065626   -0.00242262   -0.00176898
     atom   16 type  2   force =    -0.00114228    0.00000876    0.00427436
     atom   17 type  2   force =     0.00071375   -0.00018860   -0.00103868
     atom   18 type  2   force =     0.00017897   -0.00277402    0.00143433
     atom   19 type  2   force =     0.00018618    0.00103150   -0.00166622
     atom   20 type  2   force =     0.00032798   -0.00089073   -0.00024895
     atom   21 type  2   force =     0.00145349   -0.00252348    0.00139304
     atom   22 type  2   force =    -0.00008126    0.00017482   -0.00157685
     atom   23 type  2   force =     0.00000018   -0.00010473   -0.00137637
     atom   24 type  2   force =     0.00034563   -0.00238049   -0.00147056
     atom   25 type  2   force =    -0.00095261    0.00087295    0.00450535
     atom   26 type  2   force =     0.00057030   -0.00020244   -0.00061959
     atom   27 type  2   force =     0.00184338    0.00003233    0.00126792
     atom   28 type  2   force =    -0.00125045   -0.00034484    0.00160499
     atom   29 type  2   force =     0.00265256    0.00144119   -0.00091775
     atom   30 type  2   force =     0.00114246   -0.00078875   -0.00142002
     atom   31 type  2   force =    -0.00156157   -0.00020537   -0.00164685
     atom   32 type  2   force =    -0.00263990   -0.00400388   -0.00108667
     atom   33 type  3   force =    -0.00420485   -0.00871725    0.00062165
     atom   34 type  3   force =    -0.00009335    0.00005138    0.00231247
     atom   35 type  3   force =     0.00000452    0.00011737    0.00260477
     atom   36 type  3   force =     0.00044430   -0.00016376    0.00181509
     atom   37 type  3   force =     0.00055155    0.00004026    0.00285115
     atom   38 type  3   force =    -0.00037521    0.00021235    0.00130297
     atom   39 type  3   force =     0.00021779    0.00022391    0.00372677
     atom   40 type  3   force =     0.00276798    0.00474361    0.00007478
     atom   41 type  4   force =     0.00259756    0.00632482   -0.00008876
     atom   42 type  4   force =     0.00200325    0.00237051   -0.00036430
     atom   43 type  4   force =     0.00056469    0.00040125   -0.00033826
     atom   44 type  4   force =     0.00064325    0.00032230   -0.00002409
     atom   45 type  4   force =     0.00044730    0.00126771   -0.00084809
     atom   46 type  4   force =     0.00037237    0.00087681   -0.00092135
     atom   47 type  4   force =     0.00138273   -0.00013671   -0.00106428
     atom   48 type  4   force =     0.00031180    0.00007963   -0.00232314
     atom   49 type  4   force =    -0.00429179   -0.00332371    0.00108795
     atom   50 type  4   force =     0.00004301   -0.00475665   -0.00002650
     atom   51 type  5   force =     0.00082067    0.00545773   -0.00073992
     atom   52 type  5   force =     0.00002078   -0.00532932   -0.00039443
     atom   53 type  5   force =    -0.00184181    0.00719594   -0.00018577
     atom   54 type  5   force =    -0.00020225   -0.00368861   -0.00012695
     atom   55 type  5   force =     0.00224438    0.00644910   -0.00011691
     atom   56 type  5   force =    -0.00109459   -0.00206065    0.00164320
     atom   57 type  5   force =     0.00022846   -0.00049900   -0.00045933
     atom   58 type  5   force =    -0.00138443    0.00069875   -0.00078679
     atom   59 type  5   force =    -0.00113359   -0.00069377    0.00124094
     atom   60 type  5   force =     0.00048068   -0.00043714   -0.00092844
     atom   61 type  5   force =     0.00021850    0.00065706   -0.00086347
     atom   62 type  5   force =    -0.00117501   -0.00255172    0.00102524
     atom   63 type  5   force =     0.00031371   -0.00055054   -0.00112558
     atom   64 type  5   force =    -0.00109842    0.00064429   -0.00068044
     atom   65 type  5   force =    -0.00154862   -0.00086532    0.00175873
     atom   66 type  5   force =     0.00120002   -0.00030565   -0.00117589
     atom   67 type  5   force =    -0.00006967    0.00137751   -0.00110120
     atom   68 type  5   force =    -0.00119361   -0.00009700    0.00256963
     atom   69 type  5   force =     0.00147477   -0.00140539    0.00066204
     atom   70 type  5   force =    -0.00103198   -0.00105346   -0.00203520
     atom   71 type  5   force =    -0.00028958   -0.00088759    0.00049182
     atom   72 type  5   force =    -0.00050292    0.00053150    0.00012766
     atom   73 type  5   force =     0.00042137    0.00026659   -0.00152817
     atom   74 type  5   force =    -0.00155445   -0.00050131    0.00276680
     atom   75 type  5   force =     0.00062344   -0.00033305    0.00028453
     atom   76 type  5   force =    -0.00023867   -0.00181206   -0.00249821
     atom   77 type  5   force =    -0.00055546   -0.00105425    0.00084440
     atom   78 type  5   force =     0.00057285   -0.00004382   -0.00022796
     atom   79 type  5   force =    -0.00015495    0.00117323   -0.00179409
     atom   80 type  5   force =    -0.00005941   -0.00138693    0.00273095
     atom   81 type  5   force =    -0.00015632   -0.00106489   -0.00037269
     atom   82 type  5   force =    -0.00191807    0.00045038   -0.00025748
     atom   83 type  5   force =    -0.00072619   -0.00005719    0.00009091
     atom   84 type  5   force =    -0.00055512    0.00043813   -0.00062106
     atom   85 type  5   force =     0.00082823   -0.00050831   -0.00057571
     atom   86 type  5   force =    -0.00083650   -0.00191029    0.00327820
     atom   87 type  5   force =    -0.00140817    0.00071276   -0.00080281
     atom   88 type  5   force =    -0.00011015   -0.00105732   -0.00062242
     atom   89 type  5   force =    -0.00121378   -0.00061647    0.00056964
     atom   90 type  5   force =     0.00113131   -0.00081690   -0.00118841
     atom   91 type  5   force =    -0.00015992    0.00113294   -0.00098136
     atom   92 type  5   force =     0.00040953   -0.00419279    0.00012353
     atom   93 type  5   force =     0.00071163    0.00477518   -0.00046032
     atom   94 type  5   force =     0.00279766    0.00419753   -0.00095795
     atom   95 type  5   force =    -0.00022823    0.00502640   -0.00022656
     atom   96 type  5   force =    -0.00046146    0.00476356   -0.00052468

     Total force =     0.030285     Total SCF correction =     0.000155


     Computing stress (Cartesian axis) and pressure

          total   stress  (Ry/bohr**3)                   (kbar)     P=   -1.22
  -0.00001187   0.00000871  -0.00000059         -1.75      1.28     -0.09
   0.00000871  -0.00000276   0.00000215          1.28     -0.41      0.32
  -0.00000059   0.00000215  -0.00001016         -0.09      0.32     -1.49

