
     Program PWSCF v.6.4 starts on  1Jun2020 at  1: 7:35 

     This program is part of the open-source Quantum ESPRESSO suite
     for quantum simulation of materials; please cite
         "P. Giannozzi et al., J. Phys.:Condens. Matter 21 395502 (2009);
         "P. Giannozzi et al., J. Phys.:Condens. Matter 29 465901 (2017);
          URL http://www.quantum-espresso.org", 
     in publications or presentations arising from this work. More details at
     http://www.quantum-espresso.org/quote

     Parallel version (MPI), running on    32 processors

     MPI processes distributed on     1 nodes
     K-points division:     npool     =       4
     R & G space division:  proc/nbgrp/npool/nimage =       8
     Waiting for input...
     Reading input from standard input
     Message from routine read_cards :
     DEPRECATED: no units specified in CELL_PARAMETERS card

     Current dimensions of program PWSCF are:
     Max number of different atomic species (ntypx) = 10
     Max number of k-points (npk) =  40000
     Max angular momentum in pseudopotentials (lmaxx) =  3
               file Pb.pbe-dn-kjpaw_psl.1.0.0.UPF: wavefunction(s)  6S 6P 5D renormalized
               file I.pbe-n-kjpaw_psl.1.0.0.UPF: wavefunction(s)  5S renormalized
               file C.pbe-n-kjpaw_psl.1.0.0.UPF: wavefunction(s)  2S 2P renormalized
               file N.pbe-n-kjpaw_psl.1.0.0.UPF: wavefunction(s)  2S renormalized
               file H.pbe-kjpaw_psl.1.0.0.UPF: wavefunction(s)  1S renormalized

     --------------------------------------------
     Parameters for DFT-D3 Dispersion Correction:
     --------------------------------------------
       Reference C6 values for interpolation: 

         atom   Coordination number   C6
         H          0.912             6.05
         H          0.000            15.18
         C          0.000            98.23
         C          0.987            86.49
         C          1.998            58.72
         C          2.999            51.56
         C          3.984            36.41
         N          0.000            50.54
         N          0.994            44.25
         N          2.014            39.35
         N          2.990            31.16
         I          0.000           703.93
         I          0.997           717.00
         Pb         0.000          1477.63
         Pb         0.938          1266.00
         Pb         1.936          1088.91
         Pb         2.908          1048.37
         Pb         3.910           910.57

       Values used:

         atom   Coordination number  R0_AB[au]  C6      C8
         Pb         4.837            4.041    910.57 144158.34
         Pb         4.831            4.041    910.57 144158.35
         Pb         4.791            4.041    910.57 144158.44
         Pb         4.833            4.041    910.57 144158.34
         Pb         4.805            4.041    910.57 144158.40
         Pb         4.803            4.041    910.57 144158.41
         Pb         4.826            4.041    910.57 144158.36
         Pb         4.845            4.041    910.57 144158.32
         I          1.960            3.532    717.00  65856.00
         I          1.939            3.532    717.00  65855.99
         I          1.928            3.532    717.00  65855.99
         I          1.894            3.532    717.00  65855.99
         I          1.997            3.532    717.00  65856.00
         I          2.020            3.532    717.00  65856.00
         I          1.892            3.532    717.00  65855.99
         I          1.997            3.532    717.00  65856.00
         I          1.975            3.532    717.00  65856.00
         I          1.922            3.532    717.00  65855.99
         I          1.932            3.532    717.00  65855.99
         I          1.986            3.532    717.00  65856.00
         I          1.936            3.532    717.00  65855.99
         I          1.916            3.532    717.00  65855.99
         I          1.979            3.532    717.00  65856.00
         I          1.889            3.532    717.00  65855.99
         I          2.003            3.532    717.00  65856.00
         I          1.977            3.532    717.00  65856.00
         I          1.880            3.532    717.00  65855.99
         I          1.981            3.532    717.00  65856.00
         I          2.024            3.532    717.00  65856.00
         I          1.986            3.532    717.00  65856.00
         I          1.956            3.532    717.00  65856.00
         I          1.931            3.532    717.00  65855.99
         C          3.073            2.750     51.03   1475.94
         C          4.022            2.750     36.61   1058.94
         C          4.030            2.750     36.60   1058.59
         C          4.030            2.750     36.60   1058.61
         C          4.030            2.750     36.60   1058.58
         C          4.030            2.750     36.60   1058.59
         C          4.024            2.750     36.61   1058.84
         C          3.073            2.750     51.03   1475.95
         N          3.093            2.478     31.24    689.15
         N          3.095            2.478     31.24    689.13
         N          4.054            2.478     31.16    687.49
         N          4.053            2.478     31.16    687.49
         N          4.051            2.478     31.16    687.49
         N          4.053            2.478     31.16    687.49
         N          4.052            2.478     31.16    687.49
         N          4.055            2.478     31.16    687.49
         N          3.093            2.478     31.24    689.15
         N          3.095            2.478     31.24    689.12
         H          1.021            2.062      6.16     74.51
         H          1.043            2.062      6.15     74.31
         H          1.026            2.062      6.16     74.46
         H          1.032            2.062      6.15     74.40
         H          1.049            2.062      6.14     74.26
         H          1.036            2.062      6.15     74.37
         H          1.021            2.062      6.16     74.50
         H          1.079            2.062      6.13     74.05
         H          1.005            2.062      6.18     74.66
         H          1.005            2.062      6.18     74.66
         H          1.008            2.062      6.17     74.63
         H          1.025            2.062      6.16     74.47
         H          1.030            2.062      6.16     74.42
         H          1.046            2.062      6.15     74.28
         H          1.008            2.062      6.17     74.64
         H          1.010            2.062      6.17     74.61
         H          1.006            2.062      6.18     74.66
         H          1.049            2.062      6.14     74.26
         H          1.100            2.062      6.12     73.92
         H          1.014            2.062      6.17     74.58
         H          1.007            2.062      6.17     74.64
         H          1.011            2.062      6.17     74.60
         H          1.008            2.062      6.17     74.63
         H          1.048            2.062      6.14     74.27
         H          1.102            2.062      6.11     73.91
         H          1.014            2.062      6.17     74.57
         H          1.007            2.062      6.17     74.64
         H          1.011            2.062      6.17     74.61
         H          1.008            2.062      6.17     74.63
         H          1.024            2.062      6.16     74.47
         H          1.028            2.062      6.16     74.44
         H          1.044            2.062      6.15     74.30
         H          1.008            2.062      6.17     74.64
         H          1.010            2.062      6.17     74.61
         H          1.005            2.062      6.18     74.66
         H          1.044            2.062      6.15     74.30
         H          1.018            2.062      6.17     74.53
         H          1.077            2.062      6.13     74.06
         H          1.006            2.062      6.18     74.66
         H          1.006            2.062      6.18     74.66
         H          1.009            2.062      6.17     74.63
         H          1.021            2.062      6.16     74.51
         H          1.046            2.062      6.15     74.29
         H          1.026            2.062      6.16     74.45
         H          1.035            2.062      6.15     74.38
         H          1.050            2.062      6.14     74.25

         Molecular C6 ( Ry / a.u.^6 ) =   1214875.68


     Subspace diagonalization in iterative solution of the eigenvalue problem:
     a serial algorithm will be used


     Parallelization info
     --------------------
     sticks:   dense  smooth     PW     G-vecs:    dense   smooth      PW
     Min        2738    2738    704               306453   306453   40120
     Max        2740    2740    705               306455   306455   40123
     Sum       21909   21909   5637              2451631  2451631  320973



     bravais-lattice index     =            0
     lattice parameter (alat)  =      24.1526  a.u.
     unit-cell volume          =   13804.7042 (a.u.)^3
     number of atoms/cell      =           96
     number of atomic types    =            5
     number of electrons       =       408.00
     number of Kohn-Sham states=          204
     kinetic-energy cutoff     =     120.0000  Ry
     charge density cutoff     =     480.0000  Ry
     convergence threshold     =      1.0E-07
     mixing beta               =       0.7000
     number of iterations used =            8  plain     mixing
     Exchange-correlation      = SLA PW PBX PBC ( 1  4  3  4 0 0)
     nstep                     =          150


     celldm(1)=  24.152590  celldm(2)=   0.000000  celldm(3)=   0.000000
     celldm(4)=   0.000000  celldm(5)=   0.000000  celldm(6)=   0.000000

     crystal axes: (cart. coord. in units of alat)
               a(1) = (   0.992754   0.000000   0.000000 )  
               a(2) = (   0.000000   0.989927   0.000000 )  
               a(3) = (   0.000000   0.000000   0.996991 )  

     reciprocal axes: (cart. coord. in units 2 pi/alat)
               b(1) = (  1.007299  0.000000  0.000000 )  
               b(2) = (  0.000000  1.010176  0.000000 )  
               b(3) = (  0.000000  0.000000  1.003018 )  


     PseudoPot. # 1 for Pb read from file:
     ../../Pseudopotential/Pb.pbe-dn-kjpaw_psl.1.0.0.UPF
     MD5 check sum: 684fc8fbce61a260853528575e4d9ab7
     Pseudo is Projector augmented-wave + core cor, Zval = 14.0
     Generated using "atomic" code by A. Dal Corso v.6.3
     Shape of augmentation charge: PSQ
     Using radial grid of 1281 points,  6 beta functions with: 
                l(1) =   0
                l(2) =   0
                l(3) =   1
                l(4) =   1
                l(5) =   2
                l(6) =   2
     Q(r) pseudized with 0 coefficients 


     PseudoPot. # 2 for I  read from file:
     ../../Pseudopotential/I.pbe-n-kjpaw_psl.1.0.0.UPF
     MD5 check sum: cd3d296c3308a581e1559a0c8a554cb5
     Pseudo is Projector augmented-wave + core cor, Zval =  7.0
     Generated using "atomic" code by A. Dal Corso v.6.3
     Shape of augmentation charge: PSQ
     Using radial grid of 1247 points,  6 beta functions with: 
                l(1) =   0
                l(2) =   0
                l(3) =   1
                l(4) =   1
                l(5) =   2
                l(6) =   2
     Q(r) pseudized with 0 coefficients 


     PseudoPot. # 3 for C  read from file:
     ../../Pseudopotential/C.pbe-n-kjpaw_psl.1.0.0.UPF
     MD5 check sum: 5f16ad9a65e90284d1d834d4ab3b0f7d
     Pseudo is Projector augmented-wave + core cor, Zval =  4.0
     Generated using "atomic" code by A. Dal Corso v.6.3
     Shape of augmentation charge: PSQ
     Using radial grid of 1073 points,  4 beta functions with: 
                l(1) =   0
                l(2) =   0
                l(3) =   1
                l(4) =   1
     Q(r) pseudized with 0 coefficients 


     PseudoPot. # 4 for N  read from file:
     ../../Pseudopotential/N.pbe-n-kjpaw_psl.1.0.0.UPF
     MD5 check sum: 14c48229446f9f2d411169a3abcbc3fa
     Pseudo is Projector augmented-wave + core cor, Zval =  5.0
     Generated using "atomic" code by A. Dal Corso v.6.3
     Shape of augmentation charge: PSQ
     Using radial grid of 1085 points,  4 beta functions with: 
                l(1) =   0
                l(2) =   0
                l(3) =   1
                l(4) =   1
     Q(r) pseudized with 0 coefficients 


     PseudoPot. # 5 for H  read from file:
     ../../Pseudopotential/H.pbe-kjpaw_psl.1.0.0.UPF
     MD5 check sum: d81a744832360e4a8af0b0b5b123bc2a
     Pseudo is Projector augmented-wave, Zval =  1.0
     Generated using "atomic" code by A. Dal Corso v.6.3MaX
     Shape of augmentation charge: PSQ
     Using radial grid of  929 points,  2 beta functions with: 
                l(1) =   0
                l(2) =   0
     Q(r) pseudized with 0 coefficients 


     atomic species   valence    mass     pseudopotential
        Pb            14.00   207.97600     Pb( 1.00)
        I              7.00   126.90400     I ( 1.00)
        C              4.00    12.00000     C ( 1.00)
        N              5.00    14.00300     N ( 1.00)
        H              1.00     1.00700     H ( 1.00)

     No symmetry found



   Cartesian axes

     site n.     atom                  positions (alat units)
         1           Pb  tau(   1) = (   0.0121123  -0.0103633   0.0012339  )
         2           Pb  tau(   2) = (   0.0076966  -0.0083649   0.4978940  )
         3           Pb  tau(   3) = (  -0.0018254   0.4891398   0.0009265  )
         4           Pb  tau(   4) = (   0.0050656   0.4849915   0.4988268  )
         5           Pb  tau(   5) = (   0.5025259  -0.0099061  -0.0000055  )
         6           Pb  tau(   6) = (   0.4941713  -0.0059065   0.4991189  )
         7           Pb  tau(   7) = (   0.5033277   0.4859511   0.0010533  )
         8           Pb  tau(   8) = (   0.5088346   0.4858399   0.5009792  )
         9           I   tau(   9) = (   0.2567883   0.0500651  -0.0016941  )
        10           I   tau(  10) = (  -0.0084348   0.2427066  -0.0224172  )
        11           I   tau(  11) = (   0.0053997  -0.0057505   0.2519998  )
        12           I   tau(  12) = (   0.2550654   0.0611233   0.4980769  )
        13           I   tau(  13) = (  -0.0110068   0.2424554   0.5180100  )
        14           I   tau(  14) = (   0.0188719  -0.0275669   0.7504380  )
        15           I   tau(  15) = (   0.2548253   0.4752122   0.0161898  )
        16           I   tau(  16) = (   0.0692263   0.7364129   0.0053706  )
        17           I   tau(  17) = (  -0.0086276   0.4929734   0.2500589  )
        18           I   tau(  18) = (   0.2576351   0.4838217   0.4699445  )
        19           I   tau(  19) = (   0.0591867   0.7377344   0.5037336  )
        20           I   tau(  20) = (   0.0099436   0.4892714   0.7484753  )
        21           I   tau(  21) = (   0.7548706  -0.0127754  -0.0289266  )
        22           I   tau(  22) = (   0.5575837   0.2439201   0.0056582  )
        23           I   tau(  23) = (   0.5087321  -0.0075173   0.2503505  )
        24           I   tau(  24) = (   0.7513399  -0.0163401   0.5145522  )
        25           I   tau(  25) = (   0.5629263   0.2417004   0.5037836  )
        26           I   tau(  26) = (   0.4888749  -0.0019526   0.7487667  )
        27           I   tau(  27) = (   0.7507038   0.5576512   0.0012134  )
        28           I   tau(  28) = (   0.4829713   0.7385476   0.0178996  )
        29           I   tau(  29) = (   0.5152042   0.4679472   0.2517320  )
        30           I   tau(  30) = (   0.7535584   0.5440610   0.4980630  )
        31           I   tau(  31) = (   0.4893456   0.7372502   0.4770645  )
        32           I   tau(  32) = (   0.5032085   0.4898057   0.7503153  )
        33           C   tau(  33) = (   0.2520387   0.2817273   0.2466434  )
        34           C   tau(  34) = (   0.2795634   0.2741075   0.7467246  )
        35           C   tau(  35) = (   0.2760820   0.7773587   0.2495738  )
        36           C   tau(  36) = (   0.2892624   0.7728059   0.7505012  )
        37           C   tau(  37) = (   0.7854310   0.2776602   0.2530530  )
        38           C   tau(  38) = (   0.7724818   0.2820065   0.7467677  )
        39           C   tau(  39) = (   0.7763486   0.7691503   0.2486654  )
        40           C   tau(  40) = (   0.7479672   0.7771455   0.7449626  )
        41           N   tau(  41) = (   0.1605259   0.2355846   0.2487937  )
        42           N   tau(  42) = (   0.3435991   0.2347937   0.2490643  )
        43           N   tau(  43) = (   0.1936176   0.1950568   0.7585872  )
        44           N   tau(  44) = (   0.2041536   0.6853863   0.2621788  )
        45           N   tau(  45) = (   0.2006970   0.6965274   0.7569527  )
        46           N   tau(  46) = (   0.6966236   0.2019239   0.2599763  )
        47           N   tau(  47) = (   0.7009042   0.1897541   0.7598155  )
        48           N   tau(  48) = (   0.6924786   0.6883099   0.2590454  )
        49           N   tau(  49) = (   0.6563724   0.7307726   0.7481258  )
        50           N   tau(  50) = (   0.8396858   0.7298811   0.7468743  )
        51           H   tau(  51) = (   0.2527895   0.3667569   0.2423026  )
        52           H   tau(  52) = (   0.1501697   0.1562983   0.2522776  )
        53           H   tau(  53) = (   0.0948805   0.2808230   0.2462892  )
        54           H   tau(  54) = (   0.3534123   0.1557263   0.2528159  )
        55           H   tau(  55) = (   0.4092172   0.2803546   0.2472079  )
        56           H   tau(  56) = (   0.1850518   0.1513362   0.6908346  )
        57           H   tau(  57) = (   0.1228038   0.2299160   0.7759412  )
        58           H   tau(  58) = (   0.2092168   0.1434387   0.8200984  )
        59           H   tau(  59) = (   0.2811561   0.3010866   0.6653162  )
        60           H   tau(  60) = (   0.3533030   0.2359037   0.7677440  )
        61           H   tau(  61) = (   0.2637061   0.3391369   0.8001318  )
        62           H   tau(  62) = (   0.1925279   0.6470759   0.1919043  )
        63           H   tau(  63) = (   0.1319132   0.7086412   0.2901392  )
        64           H   tau(  64) = (   0.2319160   0.6310778   0.3163545  )
        65           H   tau(  65) = (   0.2660468   0.8096964   0.1708253  )
        66           H   tau(  66) = (   0.3563686   0.7505657   0.2614998  )
        67           H   tau(  67) = (   0.2555563   0.8354588   0.3089360  )
        68           H   tau(  68) = (   0.1478260   0.7079742   0.6961683  )
        69           H   tau(  69) = (   0.1603523   0.7047010   0.8278290  )
        70           H   tau(  70) = (   0.2260840   0.6201006   0.7525282  )
        71           H   tau(  71) = (   0.3313421   0.7595440   0.6770367  )
        72           H   tau(  72) = (   0.3403205   0.7600906   0.8181893  )
        73           H   tau(  73) = (   0.2565518   0.8520008   0.7522745  )
        74           H   tau(  74) = (   0.6433622   0.2139782   0.1997684  )
        75           H   tau(  75) = (   0.6568107   0.2096569   0.3311573  )
        76           H   tau(  76) = (   0.7214175   0.1254123   0.2548345  )
        77           H   tau(  77) = (   0.8273125   0.2639487   0.1796259  )
        78           H   tau(  78) = (   0.8364783   0.2651417   0.3206735  )
        79           H   tau(  79) = (   0.7531780   0.3569807   0.2543137  )
        80           H   tau(  80) = (   0.6911099   0.1494862   0.6902130  )
        81           H   tau(  81) = (   0.6280034   0.2131894   0.7858642  )
        82           H   tau(  82) = (   0.7281517   0.1371969   0.8159171  )
        83           H   tau(  83) = (   0.7605260   0.3146969   0.6684228  )
        84           H   tau(  84) = (   0.8531387   0.2552696   0.7569086  )
        85           H   tau(  85) = (   0.7526528   0.3397088   0.8068819  )
        86           H   tau(  86) = (   0.6916363   0.6392684   0.1943171  )
        87           H   tau(  87) = (   0.6195833   0.7218811   0.2664773  )
        88           H   tau(  88) = (   0.7037073   0.6422643   0.3255596  )
        89           H   tau(  89) = (   0.7730315   0.8019727   0.1695837  )
        90           H   tau(  90) = (   0.8515294   0.7307065   0.2626517  )
        91           H   tau(  91) = (   0.7624028   0.8297932   0.3073943  )
        92           H   tau(  92) = (   0.7485981   0.8620630   0.7399833  )
        93           H   tau(  93) = (   0.6461771   0.6514583   0.7517245  )
        94           H   tau(  94) = (   0.5906643   0.7758388   0.7461880  )
        95           H   tau(  95) = (   0.8492091   0.6508030   0.7513948  )
        96           H   tau(  96) = (   0.9051992   0.7755739   0.7452571  )

     number of k points=    32
                       cart. coord. in units 2pi/alat
        k(    1) = (   0.1259123   0.1262720   0.1253773), wk =   0.0625000
        k(    2) = (   0.1259123   0.1262720   0.3761318), wk =   0.0625000
        k(    3) = (   0.1259123   0.3788159   0.1253773), wk =   0.0625000
        k(    4) = (   0.1259123   0.3788159   0.3761318), wk =   0.0625000
        k(    5) = (   0.3777370   0.1262720   0.1253773), wk =   0.0625000
        k(    6) = (   0.3777370   0.1262720   0.3761318), wk =   0.0625000
        k(    7) = (   0.3777370   0.3788159   0.1253773), wk =   0.0625000
        k(    8) = (   0.3777370   0.3788159   0.3761318), wk =   0.0625000
        k(    9) = (  -0.1259123  -0.1262720   0.1253773), wk =   0.0625000
        k(   10) = (  -0.1259123   0.1262720  -0.1253773), wk =   0.0625000
        k(   11) = (   0.1259123  -0.1262720  -0.1253773), wk =   0.0625000
        k(   12) = (  -0.1259123  -0.1262720   0.3761318), wk =   0.0625000
        k(   13) = (  -0.1259123   0.1262720  -0.3761318), wk =   0.0625000
        k(   14) = (   0.1259123  -0.1262720  -0.3761318), wk =   0.0625000
        k(   15) = (  -0.1259123  -0.3788159   0.1253773), wk =   0.0625000
        k(   16) = (  -0.1259123   0.3788159  -0.1253773), wk =   0.0625000
        k(   17) = (   0.1259123  -0.3788159  -0.1253773), wk =   0.0625000
        k(   18) = (  -0.1259123  -0.3788159   0.3761318), wk =   0.0625000
        k(   19) = (  -0.1259123   0.3788159  -0.3761318), wk =   0.0625000
        k(   20) = (   0.1259123  -0.3788159  -0.3761318), wk =   0.0625000
        k(   21) = (  -0.3777370  -0.1262720   0.1253773), wk =   0.0625000
        k(   22) = (  -0.3777370   0.1262720  -0.1253773), wk =   0.0625000
        k(   23) = (   0.3777370  -0.1262720  -0.1253773), wk =   0.0625000
        k(   24) = (  -0.3777370  -0.1262720   0.3761318), wk =   0.0625000
        k(   25) = (  -0.3777370   0.1262720  -0.3761318), wk =   0.0625000
        k(   26) = (   0.3777370  -0.1262720  -0.3761318), wk =   0.0625000
        k(   27) = (  -0.3777370  -0.3788159   0.1253773), wk =   0.0625000
        k(   28) = (  -0.3777370   0.3788159  -0.1253773), wk =   0.0625000
        k(   29) = (   0.3777370  -0.3788159  -0.1253773), wk =   0.0625000
        k(   30) = (  -0.3777370  -0.3788159   0.3761318), wk =   0.0625000
        k(   31) = (  -0.3777370   0.3788159  -0.3761318), wk =   0.0625000
        k(   32) = (   0.3777370  -0.3788159  -0.3761318), wk =   0.0625000

     Dense  grid:  2451631 G-vectors     FFT dimensions: ( 180, 180, 180)

     Estimated max dynamical RAM per process >       3.22 GB

     Estimated total dynamical RAM >     102.97 GB

     Initial potential from superposition of free atoms

     starting charge  407.97850, renormalised to  408.00000
     Starting wfcs are  286 randomized atomic wfcs
     Checking if some PAW data can be deallocated... 

     total cpu time spent up to now is      999.3 secs

     Self-consistent Calculation

     iteration #  1     ecut=   120.00 Ry     beta= 0.70
     Davidson diagonalization with overlap
     ethr =  1.00E-02,  avg # of iterations =  2.0

     total cpu time spent up to now is     2847.5 secs

     total energy              =  -16543.25322153 Ry
     Harris-Foulkes estimate   =  -16546.84856210 Ry
     estimated scf accuracy    <       5.97924741 Ry

     iteration #  2     ecut=   120.00 Ry     beta= 0.70
     Davidson diagonalization with overlap
     ethr =  1.47E-03,  avg # of iterations =  3.4

     total cpu time spent up to now is     5315.9 secs

     total energy              =  -16544.55589421 Ry
     Harris-Foulkes estimate   =  -16545.98064674 Ry
     estimated scf accuracy    <       2.56155273 Ry

     iteration #  3     ecut=   120.00 Ry     beta= 0.70
     Davidson diagonalization with overlap
     ethr =  6.28E-04,  avg # of iterations =  4.0

     total cpu time spent up to now is     7259.9 secs

     total energy              =  -16545.14795128 Ry
     Harris-Foulkes estimate   =  -16545.20411501 Ry
     estimated scf accuracy    <       0.12430676 Ry

     iteration #  4     ecut=   120.00 Ry     beta= 0.70
     Davidson diagonalization with overlap
     ethr =  3.05E-05,  avg # of iterations =  4.0

     total cpu time spent up to now is     9739.1 secs

     total energy              =  -16545.18126678 Ry
     Harris-Foulkes estimate   =  -16545.19897344 Ry
     estimated scf accuracy    <       0.03413421 Ry

     iteration #  5     ecut=   120.00 Ry     beta= 0.70
     Davidson diagonalization with overlap
     ethr =  8.37E-06,  avg # of iterations =  4.0

     total cpu time spent up to now is    11741.6 secs

     total energy              =  -16545.18804257 Ry
     Harris-Foulkes estimate   =  -16545.18946463 Ry
     estimated scf accuracy    <       0.00271611 Ry

     iteration #  6     ecut=   120.00 Ry     beta= 0.70
     Davidson diagonalization with overlap
     ethr =  6.66E-07,  avg # of iterations =  4.0

     total cpu time spent up to now is    14076.2 secs

     total energy              =  -16545.18880165 Ry
     Harris-Foulkes estimate   =  -16545.18911978 Ry
     estimated scf accuracy    <       0.00072142 Ry

     iteration #  7     ecut=   120.00 Ry     beta= 0.70
     Davidson diagonalization with overlap
     ethr =  1.77E-07,  avg # of iterations =  4.0

     total cpu time spent up to now is    16238.6 secs

     total energy              =  -16545.18894756 Ry
     Harris-Foulkes estimate   =  -16545.18898631 Ry
     estimated scf accuracy    <       0.00008204 Ry

     iteration #  8     ecut=   120.00 Ry     beta= 0.70
     Davidson diagonalization with overlap
     ethr =  2.01E-08,  avg # of iterations =  4.0

     total cpu time spent up to now is    18451.3 secs

     total energy              =  -16545.18897090 Ry
     Harris-Foulkes estimate   =  -16545.18898102 Ry
     estimated scf accuracy    <       0.00002462 Ry

     iteration #  9     ecut=   120.00 Ry     beta= 0.70
     Davidson diagonalization with overlap
     ethr =  6.04E-09,  avg # of iterations =  4.0

     total cpu time spent up to now is    20549.2 secs

     total energy              =  -16545.18897572 Ry
     Harris-Foulkes estimate   =  -16545.18897648 Ry
     estimated scf accuracy    <       0.00000151 Ry

     iteration # 10     ecut=   120.00 Ry     beta= 0.70
     Davidson diagonalization with overlap
     ethr =  3.70E-10,  avg # of iterations =  4.0

     total cpu time spent up to now is    22816.1 secs

     total energy              =  -16545.18897615 Ry
     Harris-Foulkes estimate   =  -16545.18897634 Ry
     estimated scf accuracy    <       0.00000042 Ry

     iteration # 11     ecut=   120.00 Ry     beta= 0.70
     Davidson diagonalization with overlap
     ethr =  1.03E-10,  avg # of iterations =  4.0

     total cpu time spent up to now is    24851.2 secs

     End of self-consistent calculation

          k = 0.1259 0.1263 0.1254 (306469 PWs)   bands (ev):

   -18.0148 -17.9728 -17.7350 -17.7180 -17.7043 -17.7026 -17.6744 -17.6332
   -15.8623 -15.8287 -14.3346 -14.3307 -14.3274 -14.3242 -14.3210 -14.3175
   -14.3163 -14.3105 -14.3085 -14.3055 -14.3042 -14.2995 -14.2993 -14.2972
   -14.2925 -14.2921 -14.2850 -14.2847 -14.2836 -14.2829 -14.2823 -14.2815
   -14.2809 -14.2801 -14.2798 -14.2782 -14.2777 -14.2768 -14.2765 -14.2750
   -14.2723 -14.2707 -14.2698 -14.2664 -14.2606 -14.2590 -14.2558 -14.2542
   -14.2497 -14.2481 -10.7044 -10.6855 -10.6694 -10.6632 -10.6618 -10.6493
    -9.8567  -9.8352  -9.7063  -9.6030  -9.5683  -9.5375  -9.4577  -9.4431
    -9.3889  -9.3780  -9.3458  -9.3258  -9.2799  -9.2672  -9.2642  -9.2462
    -9.2057  -9.1991  -9.1526  -9.1272  -9.1107  -9.0655  -9.0479  -9.0316
    -8.9671  -8.9585  -7.8479  -7.8234  -7.2633  -7.2292  -7.2100  -7.2077
    -7.1730  -7.1665  -7.1476  -7.1382  -7.1039  -7.0963  -7.0360  -7.0297
    -7.0241  -6.9831  -5.9513  -5.5374  -5.5231  -5.5065  -5.4950  -5.4520
    -5.1256  -5.0709  -5.0458  -5.0336  -5.0111  -5.0054  -4.9898  -4.9798
    -4.9625  -4.6303  -3.9616  -3.9483  -3.4135  -3.3782  -2.9840  -2.9704
    -2.9560  -2.9425  -2.9399  -2.9346  -2.9304  -2.9148  -2.9118  -2.9095
    -2.8787  -2.8711  -1.0106  -0.9684  -0.9152  -0.8906  -0.8486  -0.8178
    -0.7877  -0.7345  -0.7101  -0.6750  -0.6742  -0.5737  -0.2300  -0.1525
     0.1496   0.1658   0.2452   0.2896   0.2938   0.3457   0.4023   0.4553
     0.4904   0.5026   0.5772   0.6000   0.6284   0.6962   0.7274   0.7492
     0.7550   0.7720   0.8002   0.8240   0.8417   0.8560   0.8812   0.8924
     0.9202   0.9413   0.9817   0.9853   1.0083   1.0260   1.0369   1.0478
     1.0719   1.1007   1.1066   1.1325   1.1606   1.1734   1.1875   1.2193
     1.2343   1.2438   1.2558   1.2660   1.2980   1.3241   1.3770   1.4157
     1.4375   1.4698   1.4980   1.5265   1.5558   1.6111   1.6876   1.7196
     1.7359   1.7722   1.8341   2.0016

          k = 0.1259 0.1263 0.3761 (306449 PWs)   bands (ev):

   -18.0148 -17.9728 -17.7350 -17.7180 -17.7043 -17.7026 -17.6744 -17.6332
   -15.8623 -15.8287 -14.3331 -14.3296 -14.3250 -14.3235 -14.3223 -14.3196
   -14.3168 -14.3106 -14.3086 -14.3056 -14.3044 -14.3002 -14.2997 -14.2974
   -14.2925 -14.2921 -14.2850 -14.2847 -14.2836 -14.2829 -14.2823 -14.2815
   -14.2809 -14.2802 -14.2798 -14.2782 -14.2776 -14.2768 -14.2766 -14.2750
   -14.2723 -14.2707 -14.2698 -14.2664 -14.2606 -14.2590 -14.2558 -14.2542
   -14.2497 -14.2481 -10.7042 -10.6851 -10.6698 -10.6633 -10.6619 -10.6494
    -9.8482  -9.8363  -9.6857  -9.6320  -9.5641  -9.5123  -9.5087  -9.4611
    -9.4237  -9.4079  -9.3174  -9.3001  -9.2758  -9.2607  -9.2332  -9.2234
    -9.1939  -9.1663  -9.1473  -9.1323  -9.1144  -9.0745  -9.0696  -9.0539
    -8.9678  -8.9605  -7.8480  -7.8236  -7.2634  -7.2295  -7.2061  -7.2038
    -7.1710  -7.1636  -7.1474  -7.1382  -7.1100  -7.1036  -7.0341  -7.0293
    -7.0235  -6.9830  -5.8227  -5.6258  -5.5144  -5.4940  -5.4144  -5.3789
    -5.2224  -5.1886  -5.0529  -5.0367  -5.0183  -5.0076  -4.9823  -4.9688
    -4.9471  -4.7869  -3.9618  -3.9485  -3.4133  -3.3780  -2.9836  -2.9708
    -2.9538  -2.9412  -2.9383  -2.9310  -2.9276  -2.9178  -2.9159  -2.9111
    -2.8784  -2.8712  -0.8667  -0.8360  -0.7975  -0.7803  -0.7433  -0.7326
    -0.6723  -0.6163  -0.5574  -0.5106  -0.4693  -0.3882  -0.2289  -0.1649
     0.0532   0.1168   0.1674   0.2167   0.2577   0.2710   0.2853   0.3350
     0.3424   0.3647   0.3942   0.4231   0.4376   0.4883   0.6849   0.6923
     0.7391   0.7469   0.8049   0.8088   0.8320   0.8473   0.8854   0.9025
     0.9165   0.9226   0.9516   0.9818   1.0075   1.0183   1.0494   1.0589
     1.0717   1.1049   1.1079   1.1508   1.1728   1.1846   1.1962   1.2182
     1.2533   1.2619   1.2806   1.2870   1.2987   1.3146   1.3371   1.3655
     1.4015   1.4083   1.4446   1.4683   1.5525   1.5868   1.5931   1.6395
     1.7112   1.7189   1.7577   1.8022

          k = 0.1259 0.3788 0.1254 (306403 PWs)   bands (ev):

   -18.0148 -17.9728 -17.7350 -17.7180 -17.7043 -17.7026 -17.6744 -17.6332
   -15.8623 -15.8287 -14.3339 -14.3310 -14.3269 -14.3244 -14.3205 -14.3175
   -14.3158 -14.3104 -14.3090 -14.3047 -14.3032 -14.3004 -14.3001 -14.2979
   -14.2924 -14.2922 -14.2850 -14.2847 -14.2836 -14.2829 -14.2827 -14.2816
   -14.2809 -14.2804 -14.2799 -14.2782 -14.2776 -14.2768 -14.2765 -14.2750
   -14.2723 -14.2707 -14.2697 -14.2664 -14.2606 -14.2590 -14.2559 -14.2542
   -14.2497 -14.2481 -10.7040 -10.6850 -10.6693 -10.6635 -10.6622 -10.6497
    -9.8494  -9.8397  -9.6783  -9.6214  -9.5650  -9.5202  -9.5064  -9.4668
    -9.3907  -9.3863  -9.3449  -9.3312  -9.2864  -9.2730  -9.2430  -9.2237
    -9.2003  -9.1855  -9.1360  -9.1254  -9.0921  -9.0657  -9.0548  -9.0308
    -8.9798  -8.9734  -7.8475  -7.8232  -7.2633  -7.2293  -7.2099  -7.2077
    -7.1730  -7.1665  -7.1475  -7.1385  -7.1040  -7.0964  -7.0358  -7.0299
    -7.0243  -6.9831  -5.8325  -5.6502  -5.5168  -5.4965  -5.4212  -5.3499
    -5.2564  -5.1735  -5.0453  -5.0254  -5.0157  -5.0049  -4.9825  -4.9678
    -4.9228  -4.7650  -3.9616  -3.9483  -3.4135  -3.3783  -2.9835  -2.9705
    -2.9504  -2.9398  -2.9358  -2.9332  -2.9312  -2.9203  -2.9161  -2.9118
    -2.8789  -2.8714  -0.9827  -0.9537  -0.9146  -0.8710  -0.7898  -0.7792
    -0.6696  -0.6474  -0.4829  -0.4610  -0.3403  -0.3322  -0.1816  -0.1660
     0.0700   0.1006   0.1872   0.2056   0.2535   0.2763   0.2922   0.3035
     0.3554   0.3992   0.4469   0.4519   0.5080   0.6142   0.6491   0.6701
     0.6855   0.7321   0.7836   0.8010   0.8385   0.8714   0.8753   0.9002
     0.9221   0.9606   0.9833   0.9891   0.9990   1.0044   1.0292   1.0749
     1.0838   1.0916   1.1381   1.1552   1.1581   1.1860   1.1888   1.2110
     1.2155   1.2466   1.2788   1.2954   1.3229   1.3466   1.3683   1.3944
     1.4164   1.4280   1.4735   1.5097   1.5558   1.5632   1.6170   1.6234
     1.6660   1.6986   1.8456   1.8576

          k = 0.1259 0.3788 0.3761 (306452 PWs)   bands (ev):

   -18.0148 -17.9728 -17.7350 -17.7180 -17.7043 -17.7026 -17.6744 -17.6332
   -15.8623 -15.8287 -14.3321 -14.3302 -14.3243 -14.3237 -14.3219 -14.3196
   -14.3164 -14.3104 -14.3091 -14.3047 -14.3032 -14.3011 -14.3008 -14.2981
   -14.2924 -14.2922 -14.2850 -14.2847 -14.2836 -14.2829 -14.2827 -14.2815
   -14.2809 -14.2804 -14.2799 -14.2782 -14.2776 -14.2768 -14.2765 -14.2750
   -14.2723 -14.2707 -14.2697 -14.2664 -14.2606 -14.2590 -14.2559 -14.2542
   -14.2497 -14.2481 -10.7038 -10.6845 -10.6698 -10.6638 -10.6621 -10.6497
    -9.8457  -9.8368  -9.6609  -9.6167  -9.5649  -9.5285  -9.5243  -9.4848
    -9.4542  -9.4333  -9.3037  -9.2852  -9.2564  -9.2450  -9.2337  -9.2192
    -9.1838  -9.1736  -9.1464  -9.1323  -9.1059  -9.0874  -9.0490  -9.0384
    -8.9844  -8.9764  -7.8477  -7.8233  -7.2634  -7.2295  -7.2061  -7.2038
    -7.1709  -7.1636  -7.1475  -7.1382  -7.1101  -7.1036  -7.0352  -7.0286
    -7.0233  -6.9829  -5.7075  -5.5478  -5.5116  -5.5041  -5.4828  -5.3290
    -5.3020  -5.1577  -5.1105  -5.0472  -5.0182  -5.0096  -4.9911  -4.9795
    -4.9617  -4.9062  -3.9618  -3.9485  -3.4133  -3.3781  -2.9833  -2.9706
    -2.9499  -2.9398  -2.9360  -2.9323  -2.9310  -2.9213  -2.9160  -2.9098
    -2.8783  -2.8710  -0.7885  -0.7642  -0.7104  -0.6903  -0.6055  -0.5789
    -0.5145  -0.4594  -0.4101  -0.4034  -0.3636  -0.3620  -0.1855  -0.1694
     0.0294   0.0554   0.1205   0.1312   0.1618   0.1767   0.1952   0.2234
     0.3259   0.3392   0.3681   0.3958   0.4644   0.5283   0.5756   0.5894
     0.6459   0.6515   0.6848   0.6976   0.7021   0.7235   0.8340   0.8377
     0.8718   0.8762   0.9376   0.9552   0.9859   1.0015   1.0864   1.0901
     1.1237   1.1283   1.1435   1.1624   1.1843   1.1904   1.2097   1.2288
     1.2404   1.2488   1.2829   1.2922   1.3082   1.3309   1.3418   1.3660
     1.3917   1.3961   1.4332   1.4774   1.5095   1.5300   1.5616   1.5879
     1.6300   1.6784   1.6984   1.7059

          k = 0.3777 0.1263 0.1254 (306432 PWs)   bands (ev):

   -18.0148 -17.9728 -17.7350 -17.7180 -17.7043 -17.7026 -17.6744 -17.6332
   -15.8623 -15.8287 -14.3345 -14.3304 -14.3274 -14.3241 -14.3208 -14.3171
   -14.3161 -14.3093 -14.3079 -14.3064 -14.3054 -14.2996 -14.2990 -14.2973
   -14.2925 -14.2921 -14.2850 -14.2847 -14.2837 -14.2829 -14.2827 -14.2814
   -14.2809 -14.2807 -14.2800 -14.2782 -14.2776 -14.2768 -14.2765 -14.2750
   -14.2723 -14.2707 -14.2698 -14.2663 -14.2606 -14.2590 -14.2558 -14.2542
   -14.2497 -14.2481 -10.7043 -10.6854 -10.6683 -10.6641 -10.6620 -10.6501
    -9.8444  -9.8343  -9.6893  -9.6443  -9.5430  -9.5163  -9.4954  -9.4716
    -9.3896  -9.3854  -9.3379  -9.3310  -9.2861  -9.2755  -9.2677  -9.2496
    -9.1984  -9.1739  -9.1265  -9.1170  -9.0882  -9.0630  -9.0407  -9.0272
    -8.9911  -8.9817  -7.8481  -7.8237  -7.2634  -7.2294  -7.2100  -7.2076
    -7.1727  -7.1661  -7.1477  -7.1382  -7.1041  -7.0963  -7.0352  -7.0300
    -7.0247  -6.9833  -5.8384  -5.6650  -5.5179  -5.4975  -5.4037  -5.3551
    -5.2479  -5.1887  -5.0466  -5.0263  -5.0119  -5.0000  -4.9829  -4.9680
    -4.9064  -4.7551  -3.9620  -3.9487  -3.4135  -3.3783  -2.9832  -2.9705
    -2.9518  -2.9415  -2.9394  -2.9369  -2.9269  -2.9132  -2.9119  -2.9062
    -2.8861  -2.8755  -0.9967  -0.9792  -0.9072  -0.8878  -0.8481  -0.8421
    -0.7233  -0.7125  -0.4393  -0.3936  -0.3675  -0.2815  -0.1781  -0.1122
     0.0970   0.1370   0.1651   0.1697   0.2746   0.3188   0.3212   0.3582
     0.3796   0.4095   0.4785   0.4968   0.5194   0.6096   0.6395   0.6560
     0.6663   0.6954   0.7893   0.8017   0.8325   0.8590   0.8695   0.8887
     0.8986   0.9290   0.9687   0.9758   1.0041   1.0094   1.0352   1.0571
     1.0870   1.1014   1.1263   1.1461   1.1674   1.2001   1.2036   1.2115
     1.2346   1.2395   1.2693   1.2979   1.3299   1.3407   1.3921   1.4143
     1.4199   1.4285   1.4798   1.4872   1.5248   1.5471   1.6286   1.6436
     1.6658   1.7129   1.8405   1.8671

          k = 0.3777 0.1263 0.3761 (306491 PWs)   bands (ev):

   -18.0148 -17.9728 -17.7350 -17.7180 -17.7043 -17.7026 -17.6744 -17.6332
   -15.8623 -15.8287 -14.3330 -14.3295 -14.3249 -14.3231 -14.3223 -14.3195
   -14.3164 -14.3094 -14.3079 -14.3066 -14.3056 -14.3004 -14.2995 -14.2974
   -14.2925 -14.2921 -14.2850 -14.2847 -14.2837 -14.2829 -14.2827 -14.2814
   -14.2809 -14.2807 -14.2800 -14.2782 -14.2776 -14.2768 -14.2766 -14.2750
   -14.2723 -14.2707 -14.2698 -14.2663 -14.2606 -14.2590 -14.2558 -14.2542
   -14.2497 -14.2481 -10.7041 -10.6849 -10.6688 -10.6639 -10.6624 -10.6501
    -9.8417  -9.8324  -9.6645  -9.6169  -9.5917  -9.5518  -9.4998  -9.4691
    -9.4306  -9.4200  -9.3156  -9.3061  -9.2779  -9.2643  -9.2229  -9.2176
    -9.1764  -9.1611  -9.1443  -9.1258  -9.1047  -9.0824  -9.0415  -9.0359
    -8.9911  -8.9839  -7.8482  -7.8239  -7.2634  -7.2296  -7.2061  -7.2039
    -7.1706  -7.1632  -7.1477  -7.1380  -7.1101  -7.1035  -7.0338  -7.0287
    -7.0243  -6.9832  -5.7129  -5.5426  -5.5285  -5.5095  -5.4893  -5.3466
    -5.2830  -5.1473  -5.0965  -5.0450  -5.0157  -5.0073  -4.9885  -4.9797
    -4.9607  -4.8985  -3.9621  -3.9488  -3.4133  -3.3781  -2.9838  -2.9716
    -2.9503  -2.9398  -2.9370  -2.9321  -2.9250  -2.9167  -2.9155  -2.9063
    -2.8860  -2.8756  -0.8587  -0.8533  -0.7871  -0.7819  -0.5774  -0.5570
    -0.4846  -0.4475  -0.4030  -0.3848  -0.3195  -0.2872  -0.1927  -0.1808
     0.0366   0.0888   0.1328   0.1765   0.1885   0.2001   0.2250   0.2537
     0.2710   0.2919   0.3714   0.3789   0.4673   0.5139   0.5854   0.6086
     0.6729   0.6849   0.7165   0.7247   0.7720   0.7783   0.8288   0.8356
     0.8519   0.8702   0.9096   0.9174   0.9550   0.9582   1.0467   1.0504
     1.0845   1.0931   1.1368   1.1721   1.1900   1.2062   1.2371   1.2490
     1.2631   1.2692   1.2873   1.2988   1.3102   1.3241   1.3539   1.3648
     1.4031   1.4162   1.4344   1.4540   1.4877   1.5122   1.5511   1.5558
     1.6403   1.6709   1.7338   1.7407

          k = 0.3777 0.3788 0.1254 (306404 PWs)   bands (ev):

   -18.0148 -17.9728 -17.7350 -17.7180 -17.7043 -17.7026 -17.6744 -17.6332
   -15.8623 -15.8287 -14.3339 -14.3308 -14.3269 -14.3242 -14.3204 -14.3168
   -14.3158 -14.3092 -14.3085 -14.3055 -14.3045 -14.3004 -14.2998 -14.2980
   -14.2924 -14.2921 -14.2850 -14.2847 -14.2837 -14.2831 -14.2829 -14.2815
   -14.2811 -14.2808 -14.2800 -14.2782 -14.2776 -14.2768 -14.2765 -14.2750
   -14.2723 -14.2707 -14.2697 -14.2663 -14.2606 -14.2590 -14.2559 -14.2542
   -14.2497 -14.2481 -10.7046 -10.6857 -10.6679 -10.6638 -10.6617 -10.6503
    -9.8440  -9.8348  -9.6600  -9.6151  -9.5945  -9.5379  -9.4981  -9.4717
    -9.4042  -9.3896  -9.3483  -9.3394  -9.2995  -9.2839  -9.2419  -9.2185
    -9.1815  -9.1521  -9.1216  -9.1134  -9.0887  -9.0637  -9.0455  -9.0351
    -8.9981  -8.9884  -7.8477  -7.8234  -7.2634  -7.2294  -7.2101  -7.2075
    -7.1728  -7.1659  -7.1478  -7.1384  -7.1042  -7.0964  -7.0353  -7.0297
    -7.0249  -6.9833  -5.7244  -5.5688  -5.5248  -5.5161  -5.4963  -5.3826
    -5.2553  -5.1133  -5.0581  -5.0482  -5.0236  -5.0073  -4.9796  -4.9768
    -4.9631  -4.8784  -3.9620  -3.9488  -3.4135  -3.3783  -2.9831  -2.9703
    -2.9462  -2.9382  -2.9362  -2.9339  -2.9296  -2.9182  -2.9164  -2.9086
    -2.8861  -2.8755  -0.9662  -0.9596  -0.9065  -0.8844  -0.5549  -0.5185
    -0.4924  -0.4346  -0.3995  -0.3866  -0.3500  -0.3030  -0.1562  -0.1258
     0.0437   0.1319   0.1477   0.1942   0.2028   0.2314   0.2703   0.2864
     0.3179   0.3256   0.3630   0.4282   0.4521   0.5023   0.5322   0.5977
     0.6694   0.6821   0.7291   0.7513   0.7656   0.8187   0.8247   0.8746
     0.9228   0.9399   0.9527   0.9658   0.9975   1.0159   1.0208   1.0296
     1.0698   1.0752   1.1187   1.1215   1.1439   1.1591   1.1862   1.2010
     1.2144   1.2309   1.2502   1.2975   1.3077   1.3574   1.3907   1.4104
     1.4243   1.4270   1.4578   1.4971   1.5418   1.5545   1.5866   1.5950
     1.6443   1.6477   1.7052   1.7616

          k = 0.3777 0.3788 0.3761 (306449 PWs)   bands (ev):

   -18.0148 -17.9728 -17.7350 -17.7180 -17.7043 -17.7026 -17.6744 -17.6332
   -15.8623 -15.8287 -14.3321 -14.3300 -14.3242 -14.3233 -14.3221 -14.3194
   -14.3160 -14.3092 -14.3086 -14.3056 -14.3045 -14.3013 -14.3005 -14.2981
   -14.2924 -14.2921 -14.2850 -14.2847 -14.2837 -14.2831 -14.2829 -14.2815
   -14.2810 -14.2809 -14.2800 -14.2782 -14.2776 -14.2768 -14.2765 -14.2750
   -14.2723 -14.2707 -14.2697 -14.2663 -14.2606 -14.2590 -14.2559 -14.2542
   -14.2497 -14.2481 -10.7043 -10.6853 -10.6683 -10.6639 -10.6618 -10.6503
    -9.8420  -9.8329  -9.6375  -9.5941  -9.5746  -9.5456  -9.5365  -9.5118
    -9.4684  -9.4500  -9.3019  -9.2917  -9.2574  -9.2402  -9.2254  -9.2160
    -9.1674  -9.1625  -9.1425  -9.1216  -9.0957  -9.0801  -9.0443  -9.0396
    -8.9987  -8.9915  -7.8479  -7.8236  -7.2634  -7.2296  -7.2061  -7.2039
    -7.1706  -7.1631  -7.1476  -7.1383  -7.1101  -7.1037  -7.0342  -7.0285
    -7.0241  -6.9831  -5.6035  -5.5196  -5.4992  -5.4460  -5.4145  -5.3918
    -5.2771  -5.2545  -5.2018  -5.1018  -5.0306  -5.0104  -4.9943  -4.9847
    -4.9709  -4.9545  -3.9622  -3.9489  -3.4134  -3.3781  -2.9835  -2.9713
    -2.9460  -2.9392  -2.9361  -2.9326  -2.9286  -2.9192  -2.9147  -2.9065
    -2.8857  -2.8752  -0.6359  -0.6268  -0.5361  -0.5241  -0.4748  -0.4735
    -0.4533  -0.4342  -0.4040  -0.3790  -0.3350  -0.3133  -0.1859  -0.1568
     0.0303   0.0721   0.1046   0.1167   0.1361   0.1670   0.1858   0.1883
     0.2360   0.2652   0.2792   0.2827   0.5016   0.5566   0.5851   0.5937
     0.6187   0.6425   0.6728   0.6787   0.7069   0.7106   0.7667   0.7711
     0.8039   0.8297   0.8735   0.8813   0.9289   0.9404   0.9551   0.9771
     1.0362   1.0709   1.0844   1.1443   1.1708   1.1779   1.2076   1.2130
     1.2556   1.2585   1.2856   1.2924   1.3043   1.3167   1.3242   1.3388
     1.4040   1.4085   1.4296   1.4420   1.5117   1.5218   1.5555   1.5735
     1.6038   1.6163   1.6548   1.6651

          k =-0.1259-0.1263 0.1254 (306469 PWs)   bands (ev):

   -18.0148 -17.9728 -17.7350 -17.7180 -17.7043 -17.7026 -17.6744 -17.6332
   -15.8623 -15.8287 -14.3346 -14.3307 -14.3274 -14.3242 -14.3210 -14.3175
   -14.3163 -14.3105 -14.3085 -14.3055 -14.3042 -14.2995 -14.2993 -14.2972
   -14.2925 -14.2921 -14.2850 -14.2847 -14.2836 -14.2829 -14.2823 -14.2815
   -14.2809 -14.2801 -14.2798 -14.2782 -14.2777 -14.2768 -14.2765 -14.2750
   -14.2723 -14.2707 -14.2698 -14.2664 -14.2606 -14.2590 -14.2558 -14.2542
   -14.2497 -14.2481 -10.7044 -10.6855 -10.6694 -10.6630 -10.6620 -10.6494
    -9.8564  -9.8353  -9.7053  -9.6068  -9.5727  -9.5298  -9.4586  -9.4397
    -9.3883  -9.3798  -9.3478  -9.3286  -9.2807  -9.2677  -9.2612  -9.2465
    -9.2052  -9.1987  -9.1512  -9.1274  -9.1080  -9.0686  -9.0499  -9.0298
    -8.9675  -8.9583  -7.8479  -7.8234  -7.2633  -7.2292  -7.2102  -7.2075
    -7.1730  -7.1665  -7.1476  -7.1382  -7.1039  -7.0963  -7.0357  -7.0297
    -7.0244  -6.9832  -5.9513  -5.5372  -5.5223  -5.5067  -5.4968  -5.4509
    -5.1241  -5.0702  -5.0460  -5.0340  -5.0119  -5.0058  -4.9897  -4.9801
    -4.9630  -4.6298  -3.9616  -3.9483  -3.4135  -3.3783  -2.9838  -2.9703
    -2.9551  -2.9412  -2.9405  -2.9330  -2.9307  -2.9157  -2.9137  -2.9096
    -2.8788  -2.8713  -1.0089  -0.9674  -0.9145  -0.8944  -0.8464  -0.8252
    -0.7882  -0.7355  -0.7055  -0.6741  -0.6720  -0.5739  -0.2309  -0.1518
     0.1502   0.1638   0.2443   0.2904   0.2945   0.3473   0.4057   0.4521
     0.4915   0.5014   0.5797   0.6069   0.6354   0.6905   0.7194   0.7361
     0.7465   0.7780   0.8200   0.8306   0.8442   0.8502   0.8776   0.8926
     0.8970   0.9408   0.9776   0.9861   1.0007   1.0236   1.0259   1.0759
     1.0807   1.1019   1.1147   1.1481   1.1566   1.1637   1.1858   1.2167
     1.2390   1.2451   1.2522   1.2615   1.3023   1.3208   1.3750   1.4169
     1.4407   1.4649   1.5002   1.5223   1.5573   1.6097   1.6913   1.7223
     1.7361   1.7708   1.8277   2.0049

          k =-0.1259 0.1263-0.1254 (306469 PWs)   bands (ev):

   -18.0148 -17.9728 -17.7350 -17.7180 -17.7043 -17.7026 -17.6744 -17.6332
   -15.8623 -15.8287 -14.3346 -14.3307 -14.3274 -14.3242 -14.3210 -14.3175
   -14.3163 -14.3105 -14.3085 -14.3055 -14.3042 -14.2995 -14.2993 -14.2972
   -14.2925 -14.2921 -14.2850 -14.2847 -14.2836 -14.2829 -14.2823 -14.2815
   -14.2809 -14.2801 -14.2798 -14.2782 -14.2777 -14.2768 -14.2765 -14.2750
   -14.2723 -14.2707 -14.2698 -14.2664 -14.2606 -14.2590 -14.2558 -14.2542
   -14.2497 -14.2481 -10.7048 -10.6859 -10.6693 -10.6626 -10.6618 -10.6492
    -9.8584  -9.8345  -9.7048  -9.6066  -9.5681  -9.5297  -9.4638  -9.4415
    -9.3900  -9.3736  -9.3494  -9.3315  -9.2784  -9.2719  -9.2574  -9.2512
    -9.2085  -9.1850  -9.1432  -9.1316  -9.1156  -9.0691  -9.0494  -9.0342
    -8.9653  -8.9571  -7.8478  -7.8234  -7.2634  -7.2292  -7.2100  -7.2077
    -7.1729  -7.1666  -7.1476  -7.1381  -7.1039  -7.0962  -7.0352  -7.0304
    -7.0243  -6.9832  -5.9509  -5.5379  -5.5222  -5.5070  -5.4971  -5.4502
    -5.1233  -5.0740  -5.0504  -5.0387  -5.0120  -5.0018  -4.9857  -4.9787
    -4.9602  -4.6293  -3.9616  -3.9483  -3.4135  -3.3782  -2.9842  -2.9703
    -2.9552  -2.9421  -2.9398  -2.9324  -2.9312  -2.9153  -2.9139  -2.9094
    -2.8787  -2.8713  -1.0110  -0.9636  -0.9572  -0.9166  -0.8387  -0.8232
    -0.7785  -0.7367  -0.7102  -0.6659  -0.6057  -0.5693  -0.2324  -0.1507
     0.1432   0.1735   0.2436   0.2820   0.2893   0.3436   0.4104   0.4292
     0.4950   0.4983   0.5649   0.6035   0.6379   0.6782   0.6860   0.7355
     0.7529   0.7753   0.8035   0.8299   0.8339   0.8532   0.8992   0.9012
     0.9350   0.9564   0.9882   0.9997   1.0031   1.0177   1.0373   1.0503
     1.0764   1.1040   1.1243   1.1292   1.1587   1.1743   1.1903   1.2046
     1.2298   1.2466   1.2626   1.2665   1.2821   1.3200   1.3918   1.4071
     1.4452   1.4688   1.4742   1.5184   1.5545   1.6134   1.6602   1.7050
     1.7743   1.7949   1.8221   2.0526

          k = 0.1259-0.1263-0.1254 (306469 PWs)   bands (ev):

   -18.0148 -17.9728 -17.7350 -17.7180 -17.7043 -17.7026 -17.6744 -17.6332
   -15.8623 -15.8287 -14.3346 -14.3307 -14.3274 -14.3242 -14.3210 -14.3175
   -14.3163 -14.3105 -14.3085 -14.3055 -14.3042 -14.2995 -14.2993 -14.2972
   -14.2925 -14.2921 -14.2850 -14.2847 -14.2836 -14.2829 -14.2823 -14.2815
   -14.2809 -14.2801 -14.2798 -14.2782 -14.2777 -14.2768 -14.2765 -14.2750
   -14.2723 -14.2707 -14.2698 -14.2664 -14.2606 -14.2590 -14.2558 -14.2542
   -14.2497 -14.2481 -10.7047 -10.6859 -10.6693 -10.6627 -10.6617 -10.6492
    -9.8582  -9.8345  -9.7051  -9.6058  -9.5684  -9.5324  -9.4616  -9.4397
    -9.3914  -9.3735  -9.3535  -9.3235  -9.2792  -9.2747  -9.2580  -9.2526
    -9.2100  -9.1819  -9.1439  -9.1325  -9.1146  -9.0687  -9.0492  -9.0341
    -8.9652  -8.9575  -7.8479  -7.8234  -7.2634  -7.2292  -7.2099  -7.2077
    -7.1730  -7.1666  -7.1474  -7.1384  -7.1039  -7.0964  -7.0361  -7.0295
    -7.0242  -6.9831  -5.9507  -5.5387  -5.5228  -5.5070  -5.4954  -5.4508
    -5.1241  -5.0750  -5.0486  -5.0372  -5.0132  -5.0017  -4.9855  -4.9790
    -4.9603  -4.6293  -3.9616  -3.9483  -3.4135  -3.3783  -2.9840  -2.9701
    -2.9556  -2.9431  -2.9404  -2.9338  -2.9303  -2.9154  -2.9118  -2.9092
    -2.8787  -2.8711  -1.0124  -0.9693  -0.9583  -0.9162  -0.8333  -0.8121
    -0.7865  -0.7399  -0.7041  -0.6668  -0.6096  -0.5670  -0.2314  -0.1512
     0.1415   0.1738   0.2440   0.2836   0.2913   0.3441   0.4064   0.4265
     0.4893   0.4954   0.5802   0.6069   0.6271   0.6776   0.6945   0.7252
     0.7513   0.7696   0.8098   0.8275   0.8387   0.8635   0.8895   0.8936
     0.9430   0.9591   0.9658   0.9947   1.0174   1.0224   1.0317   1.0694
     1.0921   1.1043   1.1138   1.1231   1.1563   1.1762   1.1868   1.2118
     1.2345   1.2416   1.2523   1.2596   1.2872   1.3242   1.3907   1.4139
     1.4398   1.4687   1.4753   1.5227   1.5484   1.6186   1.6563   1.7008
     1.7611   1.8086   1.8292   2.0496

          k =-0.1259-0.1263 0.3761 (306449 PWs)   bands (ev):

   -18.0148 -17.9728 -17.7350 -17.7180 -17.7043 -17.7026 -17.6744 -17.6332
   -15.8623 -15.8287 -14.3331 -14.3296 -14.3250 -14.3235 -14.3223 -14.3196
   -14.3168 -14.3106 -14.3086 -14.3056 -14.3044 -14.3002 -14.2997 -14.2974
   -14.2925 -14.2921 -14.2850 -14.2847 -14.2836 -14.2829 -14.2823 -14.2815
   -14.2809 -14.2802 -14.2798 -14.2782 -14.2776 -14.2768 -14.2766 -14.2750
   -14.2723 -14.2707 -14.2698 -14.2664 -14.2606 -14.2590 -14.2558 -14.2542
   -14.2497 -14.2481 -10.7042 -10.6850 -10.6698 -10.6631 -10.6621 -10.6494
    -9.8478  -9.8364  -9.6821  -9.6396  -9.5635  -9.5096  -9.5057  -9.4606
    -9.4286  -9.4039  -9.3191  -9.3061  -9.2710  -9.2611  -9.2306  -9.2236
    -9.1974  -9.1699  -9.1380  -9.1333  -9.1064  -9.0824  -9.0773  -9.0482
    -8.9681  -8.9603  -7.8479  -7.8236  -7.2634  -7.2295  -7.2062  -7.2037
    -7.1710  -7.1636  -7.1474  -7.1381  -7.1100  -7.1036  -7.0336  -7.0295
    -7.0238  -6.9831  -5.8227  -5.6257  -5.5146  -5.4941  -5.4144  -5.3791
    -5.2218  -5.1880  -5.0510  -5.0355  -5.0194  -5.0087  -4.9827  -4.9690
    -4.9501  -4.7851  -3.9618  -3.9485  -3.4133  -3.3781  -2.9833  -2.9706
    -2.9529  -2.9417  -2.9358  -2.9305  -2.9262  -2.9201  -2.9183  -2.9111
    -2.8784  -2.8715  -0.8655  -0.8182  -0.8068  -0.7934  -0.7454  -0.7343
    -0.6628  -0.6311  -0.5451  -0.5096  -0.4674  -0.3895  -0.2300  -0.1636
     0.0509   0.1139   0.1803   0.2125   0.2514   0.2821   0.2842   0.3230
     0.3395   0.3637   0.4072   0.4247   0.4352   0.4843   0.6765   0.6972
     0.7403   0.7458   0.7957   0.8160   0.8268   0.8535   0.8957   0.8983
     0.9061   0.9296   0.9574   0.9775   1.0002   1.0074   1.0542   1.0616
     1.0801   1.0906   1.1368   1.1461   1.1701   1.1803   1.2064   1.2217
     1.2435   1.2602   1.2777   1.2933   1.2959   1.3152   1.3356   1.3667
     1.3960   1.4080   1.4502   1.4628   1.5488   1.5856   1.6005   1.6395
     1.7095   1.7185   1.7529   1.8076

          k =-0.1259 0.1263-0.3761 (306449 PWs)   bands (ev):

   -18.0148 -17.9728 -17.7350 -17.7180 -17.7043 -17.7026 -17.6744 -17.6332
   -15.8623 -15.8287 -14.3331 -14.3296 -14.3250 -14.3235 -14.3223 -14.3196
   -14.3168 -14.3106 -14.3086 -14.3056 -14.3044 -14.3002 -14.2997 -14.2974
   -14.2925 -14.2921 -14.2850 -14.2847 -14.2836 -14.2829 -14.2823 -14.2815
   -14.2809 -14.2802 -14.2798 -14.2782 -14.2776 -14.2768 -14.2766 -14.2750
   -14.2723 -14.2707 -14.2698 -14.2664 -14.2606 -14.2590 -14.2558 -14.2542
   -14.2497 -14.2481 -10.7045 -10.6855 -10.6696 -10.6626 -10.6619 -10.6493
    -9.8490  -9.8363  -9.6827  -9.6361  -9.5632  -9.5127  -9.5056  -9.4604
    -9.4261  -9.4065  -9.3174  -9.3080  -9.2709  -9.2609  -9.2305  -9.2224
    -9.1979  -9.1673  -9.1408  -9.1339  -9.1018  -9.0858  -9.0725  -9.0570
    -8.9664  -8.9587  -7.8479  -7.8236  -7.2635  -7.2295  -7.2062  -7.2038
    -7.1709  -7.1636  -7.1476  -7.1379  -7.1101  -7.1035  -7.0337  -7.0296
    -7.0236  -6.9831  -5.8221  -5.6242  -5.5148  -5.4943  -5.4154  -5.3802
    -5.2234  -5.1911  -5.0511  -5.0360  -5.0199  -5.0062  -4.9813  -4.9674
    -4.9483  -4.7856  -3.9618  -3.9486  -3.4133  -3.3780  -2.9835  -2.9708
    -2.9530  -2.9413  -2.9361  -2.9297  -2.9275  -2.9190  -2.9185  -2.9115
    -2.8783  -2.8715  -0.9198  -0.8738  -0.7882  -0.7763  -0.7138  -0.6949
    -0.6470  -0.6138  -0.5546  -0.4975  -0.4706  -0.3911  -0.2340  -0.1628
     0.0517   0.1175   0.1726   0.2149   0.2564   0.2724   0.2768   0.3143
     0.3461   0.3734   0.3924   0.4317   0.4349   0.4766   0.6631   0.6689
     0.7393   0.7625   0.7735   0.8168   0.8342   0.8440   0.8643   0.8856
     0.9176   0.9498   0.9569   0.9636   1.0323   1.0420   1.0627   1.0777
     1.0857   1.1086   1.1253   1.1373   1.1558   1.1688   1.2049   1.2151
     1.2489   1.2504   1.2736   1.2909   1.2953   1.3205   1.3469   1.3771
     1.3983   1.4040   1.4469   1.4557   1.5481   1.5724   1.5867   1.6267
     1.6744   1.6820   1.8265   1.8794

          k = 0.1259-0.1263-0.3761 (306449 PWs)   bands (ev):

   -18.0148 -17.9728 -17.7350 -17.7180 -17.7043 -17.7026 -17.6744 -17.6332
   -15.8623 -15.8287 -14.3331 -14.3296 -14.3250 -14.3235 -14.3223 -14.3196
   -14.3168 -14.3106 -14.3086 -14.3056 -14.3044 -14.3002 -14.2997 -14.2974
   -14.2925 -14.2921 -14.2850 -14.2847 -14.2836 -14.2829 -14.2823 -14.2815
   -14.2809 -14.2802 -14.2798 -14.2782 -14.2776 -14.2768 -14.2766 -14.2750
   -14.2723 -14.2707 -14.2698 -14.2664 -14.2606 -14.2590 -14.2558 -14.2542
   -14.2497 -14.2481 -10.7045 -10.6855 -10.6697 -10.6628 -10.6618 -10.6493
    -9.8487  -9.8365  -9.6835  -9.6340  -9.5681  -9.5092  -9.5045  -9.4603
    -9.4262  -9.4082  -9.3207  -9.2969  -9.2719  -9.2678  -9.2309  -9.2235
    -9.1966  -9.1654  -9.1420  -9.1360  -9.1014  -9.0834  -9.0718  -9.0581
    -8.9663  -8.9590  -7.8479  -7.8236  -7.2635  -7.2295  -7.2061  -7.2038
    -7.1710  -7.1636  -7.1474  -7.1381  -7.1101  -7.1036  -7.0348  -7.0285
    -7.0236  -6.9830  -5.8217  -5.6251  -5.5146  -5.4940  -5.4153  -5.3807
    -5.2240  -5.1908  -5.0503  -5.0357  -5.0204  -5.0061  -4.9812  -4.9674
    -4.9485  -4.7856  -3.9618  -3.9486  -3.4133  -3.3781  -2.9834  -2.9706
    -2.9534  -2.9419  -2.9376  -2.9313  -2.9271  -2.9186  -2.9157  -2.9115
    -2.8784  -2.8712  -0.9249  -0.8714  -0.8029  -0.7473  -0.7271  -0.6936
    -0.6505  -0.6169  -0.5446  -0.5056  -0.4655  -0.3867  -0.2318  -0.1619
     0.0451   0.1196   0.1700   0.2151   0.2550   0.2640   0.2822   0.3315
     0.3481   0.3525   0.3971   0.4235   0.4283   0.4797   0.6660   0.6741
     0.7453   0.7525   0.7883   0.8115   0.8420   0.8477   0.8786   0.8846
     0.9084   0.9353   0.9428   0.9613   1.0259   1.0416   1.0733   1.0783
     1.0980   1.1149   1.1338   1.1382   1.1540   1.1582   1.1963   1.2242
     1.2470   1.2550   1.2711   1.2857   1.2880   1.3208   1.3453   1.3756
     1.4009   1.4095   1.4471   1.4619   1.5355   1.5802   1.5912   1.6172
     1.6753   1.6854   1.8305   1.8755

          k =-0.1259-0.3788 0.1254 (306403 PWs)   bands (ev):

   -18.0148 -17.9728 -17.7350 -17.7180 -17.7043 -17.7026 -17.6744 -17.6332
   -15.8623 -15.8287 -14.3339 -14.3310 -14.3269 -14.3244 -14.3205 -14.3175
   -14.3158 -14.3104 -14.3090 -14.3047 -14.3032 -14.3004 -14.3001 -14.2979
   -14.2924 -14.2922 -14.2850 -14.2847 -14.2836 -14.2829 -14.2827 -14.2816
   -14.2809 -14.2804 -14.2799 -14.2782 -14.2776 -14.2768 -14.2765 -14.2750
   -14.2723 -14.2707 -14.2697 -14.2664 -14.2606 -14.2590 -14.2559 -14.2542
   -14.2497 -14.2481 -10.7040 -10.6850 -10.6693 -10.6632 -10.6624 -10.6497
    -9.8493  -9.8397  -9.6758  -9.6266  -9.5655  -9.5142  -9.5073  -9.4687
    -9.3937  -9.3822  -9.3404  -9.3365  -9.2871  -9.2764  -9.2417  -9.2186
    -9.2033  -9.1860  -9.1350  -9.1247  -9.0890  -9.0675  -9.0578  -9.0300
    -8.9804  -8.9728  -7.8475  -7.8232  -7.2633  -7.2293  -7.2101  -7.2074
    -7.1729  -7.1665  -7.1478  -7.1382  -7.1041  -7.0964  -7.0347  -7.0306
    -7.0245  -6.9833  -5.8326  -5.6498  -5.5170  -5.4967  -5.4217  -5.3490
    -5.2554  -5.1737  -5.0454  -5.0252  -5.0161  -5.0054  -4.9825  -4.9677
    -4.9240  -4.7638  -3.9616  -3.9483  -3.4135  -3.3783  -2.9833  -2.9704
    -2.9489  -2.9398  -2.9358  -2.9320  -2.9294  -2.9221  -2.9177  -2.9128
    -2.8790  -2.8717  -0.9822  -0.9587  -0.9117  -0.8705  -0.7906  -0.7756
    -0.6724  -0.6445  -0.4868  -0.4603  -0.3399  -0.3316  -0.1825  -0.1672
     0.0747   0.1020   0.1854   0.2042   0.2539   0.2723   0.2832   0.3184
     0.3512   0.4019   0.4462   0.4546   0.5150   0.6040   0.6566   0.6684
     0.6886   0.7176   0.7839   0.8004   0.8298   0.8737   0.8865   0.9067
     0.9128   0.9568   0.9784   0.9905   1.0012   1.0054   1.0464   1.0724
     1.0846   1.0891   1.1293   1.1518   1.1644   1.1842   1.1883   1.2109
     1.2202   1.2452   1.2697   1.2926   1.3280   1.3505   1.3851   1.3949
     1.4190   1.4281   1.4758   1.4915   1.5511   1.5543   1.6195   1.6301
     1.6700   1.6930   1.8443   1.8639

          k =-0.1259 0.3788-0.1254 (306403 PWs)   bands (ev):

   -18.0148 -17.9728 -17.7350 -17.7180 -17.7043 -17.7026 -17.6744 -17.6332
   -15.8623 -15.8287 -14.3339 -14.3310 -14.3269 -14.3244 -14.3205 -14.3175
   -14.3158 -14.3104 -14.3090 -14.3047 -14.3031 -14.3004 -14.3001 -14.2979
   -14.2924 -14.2922 -14.2850 -14.2847 -14.2836 -14.2829 -14.2827 -14.2816
   -14.2809 -14.2804 -14.2799 -14.2782 -14.2776 -14.2768 -14.2765 -14.2750
   -14.2723 -14.2707 -14.2697 -14.2664 -14.2606 -14.2590 -14.2559 -14.2542
   -14.2497 -14.2481 -10.7043 -10.6854 -10.6692 -10.6628 -10.6623 -10.6496
    -9.8520  -9.8380  -9.6744  -9.6293  -9.5554  -9.5161  -9.5116  -9.4707
    -9.3908  -9.3850  -9.3437  -9.3377  -9.2890  -9.2706  -9.2363  -9.2302
    -9.2001  -9.1782  -9.1348  -9.1234  -9.0846  -9.0726  -9.0638  -9.0336
    -8.9776  -8.9708  -7.8475  -7.8232  -7.2633  -7.2293  -7.2098  -7.2077
    -7.1729  -7.1666  -7.1475  -7.1384  -7.1040  -7.0964  -7.0348  -7.0307
    -7.0244  -6.9832  -5.8313  -5.6515  -5.5170  -5.4967  -5.4239  -5.3457
    -5.2528  -5.1796  -5.0491  -5.0305  -5.0135  -5.0004  -4.9820  -4.9679
    -4.9202  -4.7637  -3.9616  -3.9484  -3.4135  -3.3783  -2.9836  -2.9704
    -2.9487  -2.9405  -2.9359  -2.9327  -2.9284  -2.9216  -2.9185  -2.9122
    -2.8789  -2.8716  -0.9880  -0.9434  -0.9182  -0.8754  -0.8516  -0.7560
    -0.7121  -0.6230  -0.4358  -0.4248  -0.3124  -0.2905  -0.1816  -0.1622
     0.0446   0.0516   0.1832   0.1982   0.2432   0.2509   0.2799   0.3041
     0.3824   0.3947   0.4212   0.4655   0.5040   0.5846   0.6185   0.6761
     0.7075   0.7273   0.7870   0.8060   0.8596   0.8647   0.8981   0.9029
     0.9313   0.9640   0.9775   0.9977   1.0001   1.0139   1.0502   1.0648
     1.0897   1.1005   1.1215   1.1418   1.1519   1.1759   1.1966   1.2194
     1.2238   1.2313   1.2836   1.3024   1.3195   1.3350   1.3753   1.3866
     1.4257   1.4366   1.4766   1.4830   1.5059   1.5851   1.6212   1.6335
     1.6429   1.7334   1.8175   1.9196

          k = 0.1259-0.3788-0.1254 (306403 PWs)   bands (ev):

   -18.0148 -17.9728 -17.7350 -17.7180 -17.7043 -17.7026 -17.6744 -17.6332
   -15.8623 -15.8287 -14.3339 -14.3310 -14.3269 -14.3244 -14.3205 -14.3175
   -14.3158 -14.3104 -14.3090 -14.3047 -14.3031 -14.3004 -14.3001 -14.2979
   -14.2924 -14.2922 -14.2850 -14.2847 -14.2836 -14.2829 -14.2827 -14.2816
   -14.2809 -14.2804 -14.2799 -14.2782 -14.2776 -14.2768 -14.2765 -14.2750
   -14.2723 -14.2707 -14.2697 -14.2664 -14.2606 -14.2590 -14.2559 -14.2542
   -14.2497 -14.2481 -10.7043 -10.6854 -10.6693 -10.6630 -10.6621 -10.6496
    -9.8520  -9.8379  -9.6764  -9.6251  -9.5569  -9.5188  -9.5143  -9.4663
    -9.3933  -9.3822  -9.3498  -9.3271  -9.2897  -9.2747  -9.2389  -9.2264
    -9.2041  -9.1763  -9.1350  -9.1231  -9.0872  -9.0714  -9.0613  -9.0334
    -8.9788  -8.9703  -7.8475  -7.8232  -7.2634  -7.2293  -7.2099  -7.2076
    -7.1729  -7.1666  -7.1475  -7.1384  -7.1041  -7.0964  -7.0353  -7.0302
    -7.0243  -6.9832  -5.8310  -5.6519  -5.5170  -5.4967  -5.4235  -5.3461
    -5.2538  -5.1784  -5.0498  -5.0316  -5.0133  -5.0000  -4.9821  -4.9681
    -4.9183  -4.7642  -3.9616  -3.9484  -3.4135  -3.3783  -2.9835  -2.9702
    -2.9500  -2.9401  -2.9363  -2.9332  -2.9308  -2.9210  -2.9151  -2.9124
    -2.8789  -2.8714  -0.9915  -0.9419  -0.9232  -0.8831  -0.8390  -0.7500
    -0.7132  -0.6256  -0.4360  -0.4209  -0.3140  -0.2913  -0.1792  -0.1619
     0.0399   0.0502   0.1772   0.1991   0.2454   0.2653   0.2808   0.2963
     0.3739   0.3974   0.4195   0.4724   0.4975   0.5859   0.6156   0.6848
     0.7114   0.7126   0.7887   0.8024   0.8692   0.8733   0.8982   0.9061
     0.9298   0.9586   0.9713   0.9878   0.9973   1.0228   1.0421   1.0816
     1.0852   1.1182   1.1248   1.1350   1.1481   1.1704   1.2004   1.2137
     1.2202   1.2297   1.2834   1.2955   1.3211   1.3513   1.3728   1.3843
     1.4195   1.4460   1.4621   1.4965   1.5061   1.5740   1.6187   1.6332
     1.6415   1.7445   1.8202   1.9167

          k =-0.1259-0.3788 0.3761 (306452 PWs)   bands (ev):

   -18.0148 -17.9728 -17.7350 -17.7180 -17.7043 -17.7026 -17.6744 -17.6332
   -15.8623 -15.8287 -14.3321 -14.3302 -14.3243 -14.3237 -14.3219 -14.3195
   -14.3164 -14.3104 -14.3091 -14.3047 -14.3032 -14.3011 -14.3008 -14.2981
   -14.2924 -14.2922 -14.2850 -14.2847 -14.2836 -14.2829 -14.2827 -14.2815
   -14.2809 -14.2804 -14.2799 -14.2782 -14.2776 -14.2768 -14.2765 -14.2750
   -14.2723 -14.2707 -14.2697 -14.2664 -14.2606 -14.2590 -14.2559 -14.2542
   -14.2497 -14.2481 -10.7038 -10.6845 -10.6698 -10.6636 -10.6622 -10.6497
    -9.8455  -9.8368  -9.6523  -9.6332  -9.5527  -9.5317  -9.5244  -9.4875
    -9.4562  -9.4282  -9.3026  -9.2937  -9.2562  -9.2388  -9.2305  -9.2215
    -9.1871  -9.1773  -9.1381  -9.1320  -9.1035  -9.0911  -9.0532  -9.0363
    -8.9847  -8.9760  -7.8476  -7.8233  -7.2634  -7.2295  -7.2064  -7.2035
    -7.1709  -7.1636  -7.1477  -7.1379  -7.1102  -7.1035  -7.0343  -7.0291
    -7.0236  -6.9830  -5.7080  -5.5382  -5.5250  -5.5053  -5.4768  -5.3294
    -5.3031  -5.1487  -5.1147  -5.0501  -5.0212  -5.0105  -4.9916  -4.9785
    -4.9632  -4.9020  -3.9618  -3.9485  -3.4134  -3.3781  -2.9831  -2.9704
    -2.9481  -2.9402  -2.9364  -2.9307  -2.9288  -2.9233  -2.9182  -2.9105
    -2.8784  -2.8712  -0.7852  -0.7781  -0.7009  -0.6865  -0.6158  -0.5690
    -0.5042  -0.4649  -0.4135  -0.4068  -0.3655  -0.3607  -0.1878  -0.1746
     0.0271   0.0714   0.1123   0.1496   0.1622   0.1828   0.1983   0.2049
     0.3249   0.3322   0.3582   0.3962   0.5011   0.5042   0.5838   0.5870
     0.6274   0.6544   0.6819   0.6984   0.7079   0.7148   0.8346   0.8460
     0.8698   0.8996   0.9266   0.9510   0.9848   1.0040   1.0807   1.0953
     1.1195   1.1334   1.1500   1.1651   1.1804   1.1865   1.2066   1.2132
     1.2356   1.2498   1.2827   1.3052   1.3211   1.3347   1.3397   1.3622
     1.3876   1.4103   1.4252   1.4708   1.4933   1.5347   1.5604   1.5903
     1.6516   1.6562   1.7015   1.7115

          k =-0.1259 0.3788-0.3761 (306452 PWs)   bands (ev):

   -18.0148 -17.9728 -17.7350 -17.7180 -17.7043 -17.7026 -17.6744 -17.6332
   -15.8623 -15.8287 -14.3321 -14.3302 -14.3243 -14.3237 -14.3219 -14.3195
   -14.3164 -14.3104 -14.3091 -14.3047 -14.3032 -14.3011 -14.3008 -14.2981
   -14.2924 -14.2922 -14.2850 -14.2847 -14.2836 -14.2829 -14.2827 -14.2815
   -14.2809 -14.2804 -14.2799 -14.2782 -14.2776 -14.2768 -14.2765 -14.2750
   -14.2723 -14.2707 -14.2697 -14.2664 -14.2606 -14.2590 -14.2559 -14.2542
   -14.2497 -14.2481 -10.7041 -10.6850 -10.6696 -10.6632 -10.6620 -10.6496
    -9.8466  -9.8368  -9.6517  -9.6318  -9.5552  -9.5340  -9.5152  -9.4925
    -9.4523  -9.4335  -9.3031  -9.2924  -9.2517  -9.2467  -9.2299  -9.2185
    -9.1886  -9.1720  -9.1418  -9.1343  -9.0938  -9.0905  -9.0608  -9.0422
    -8.9814  -8.9737  -7.8476  -7.8233  -7.2635  -7.2296  -7.2062  -7.2037
    -7.1709  -7.1636  -7.1477  -7.1379  -7.1101  -7.1035  -7.0349  -7.0287
    -7.0235  -6.9829  -5.7060  -5.5394  -5.5240  -5.5052  -5.4764  -5.3337
    -5.3065  -5.1461  -5.1196  -5.0440  -5.0198  -5.0135  -4.9898  -4.9766
    -4.9613  -4.9042  -3.9618  -3.9485  -3.4133  -3.3781  -2.9833  -2.9706
    -2.9481  -2.9407  -2.9360  -2.9305  -2.9288  -2.9229  -2.9188  -2.9105
    -2.8783  -2.8712  -0.8307  -0.7961  -0.7129  -0.6692  -0.6060  -0.5688
    -0.5014  -0.4573  -0.3751  -0.3709  -0.3482  -0.3220  -0.1901  -0.1761
     0.0128   0.0546   0.1028   0.1137   0.1442   0.1627   0.1954   0.2077
     0.3214   0.3395   0.3891   0.3919   0.4855   0.4888   0.5732   0.5801
     0.6354   0.6509   0.6791   0.6907   0.6992   0.7273   0.8240   0.8349
     0.8795   0.8835   0.9469   0.9519   1.0305   1.0347   1.0770   1.0903
     1.1173   1.1293   1.1493   1.1611   1.1830   1.1931   1.2156   1.2227
     1.2302   1.2463   1.2654   1.2975   1.3031   1.3390   1.3529   1.3618
     1.3916   1.4048   1.4375   1.4535   1.4976   1.5269   1.5560   1.5625
     1.6246   1.6295   1.7525   1.7774

          k = 0.1259-0.3788-0.3761 (306452 PWs)   bands (ev):

   -18.0148 -17.9728 -17.7350 -17.7180 -17.7043 -17.7026 -17.6744 -17.6332
   -15.8623 -15.8287 -14.3321 -14.3302 -14.3243 -14.3237 -14.3219 -14.3195
   -14.3164 -14.3104 -14.3091 -14.3047 -14.3032 -14.3011 -14.3008 -14.2981
   -14.2924 -14.2922 -14.2850 -14.2847 -14.2836 -14.2829 -14.2827 -14.2815
   -14.2809 -14.2804 -14.2799 -14.2782 -14.2776 -14.2768 -14.2765 -14.2750
   -14.2723 -14.2707 -14.2697 -14.2664 -14.2606 -14.2590 -14.2559 -14.2542
   -14.2497 -14.2481 -10.7041 -10.6850 -10.6697 -10.6633 -10.6619 -10.6495
    -9.8465  -9.8368  -9.6586  -9.6177  -9.5691  -9.5284  -9.5189  -9.4880
    -9.4503  -9.4354  -9.3044  -9.2859  -9.2554  -9.2462  -9.2306  -9.2212
    -9.1888  -9.1701  -9.1420  -9.1353  -9.0966  -9.0888  -9.0566  -9.0434
    -8.9828  -8.9732  -7.8476  -7.8233  -7.2635  -7.2296  -7.2062  -7.2036
    -7.1709  -7.1636  -7.1478  -7.1379  -7.1102  -7.1035  -7.0352  -7.0284
    -7.0235  -6.9829  -5.7052  -5.5487  -5.5125  -5.5034  -5.4820  -5.3326
    -5.3052  -5.1545  -5.1154  -5.0433  -5.0178  -5.0123  -4.9893  -4.9775
    -4.9599  -4.9063  -3.9618  -3.9485  -3.4133  -3.3781  -2.9832  -2.9704
    -2.9496  -2.9399  -2.9357  -2.9324  -2.9308  -2.9223  -2.9156  -2.9103
    -2.8783  -2.8710  -0.8413  -0.7916  -0.7096  -0.6740  -0.5889  -0.5786
    -0.5031  -0.4572  -0.3710  -0.3610  -0.3493  -0.3288  -0.1857  -0.1686
     0.0164   0.0364   0.0933   0.0984   0.1302   0.1758   0.1962   0.2338
     0.3252   0.3359   0.3865   0.3905   0.4613   0.5078   0.5662   0.5769
     0.6296   0.6720   0.6851   0.6937   0.7062   0.7186   0.8326   0.8358
     0.8673   0.8862   0.9362   0.9458   1.0306   1.0415   1.0782   1.0870
     1.1314   1.1391   1.1481   1.1654   1.1714   1.1830   1.2080   1.2204
     1.2329   1.2449   1.2823   1.2929   1.3034   1.3222   1.3554   1.3647
     1.4017   1.4132   1.4238   1.4720   1.4998   1.5043   1.5531   1.5587
     1.6158   1.6533   1.7517   1.7749

          k =-0.3777-0.1263 0.1254 (306432 PWs)   bands (ev):

   -18.0148 -17.9728 -17.7350 -17.7180 -17.7043 -17.7026 -17.6744 -17.6332
   -15.8623 -15.8287 -14.3345 -14.3304 -14.3274 -14.3241 -14.3208 -14.3171
   -14.3161 -14.3093 -14.3079 -14.3064 -14.3054 -14.2996 -14.2990 -14.2973
   -14.2925 -14.2921 -14.2850 -14.2847 -14.2837 -14.2829 -14.2827 -14.2814
   -14.2809 -14.2807 -14.2800 -14.2782 -14.2776 -14.2768 -14.2765 -14.2750
   -14.2723 -14.2707 -14.2698 -14.2663 -14.2606 -14.2590 -14.2558 -14.2542
   -14.2497 -14.2481 -10.7043 -10.6853 -10.6683 -10.6638 -10.6623 -10.6502
    -9.8442  -9.8343  -9.6875  -9.6464  -9.5533  -9.5064  -9.4938  -9.4689
    -9.3901  -9.3839  -9.3451  -9.3323  -9.2894  -9.2762  -9.2623  -9.2484
    -9.1954  -9.1752  -9.1265  -9.1179  -9.0844  -9.0652  -9.0434  -9.0256
    -8.9913  -8.9819  -7.8481  -7.8237  -7.2634  -7.2294  -7.2100  -7.2076
    -7.1727  -7.1661  -7.1475  -7.1384  -7.1040  -7.0965  -7.0354  -7.0294
    -7.0250  -6.9834  -5.8382  -5.6653  -5.5178  -5.4973  -5.4046  -5.3543
    -5.2465  -5.1894  -5.0467  -5.0264  -5.0120  -5.0002  -4.9828  -4.9679
    -4.9078  -4.7540  -3.9620  -3.9487  -3.4135  -3.3783  -2.9830  -2.9703
    -2.9509  -2.9414  -2.9388  -2.9349  -2.9275  -2.9146  -2.9132  -2.9069
    -2.8861  -2.8756  -0.9926  -0.9789  -0.8990  -0.8962  -0.8600  -0.8383
    -0.7223  -0.7132  -0.4360  -0.3926  -0.3660  -0.2859  -0.1730  -0.1093
     0.0940   0.1322   0.1622   0.1682   0.2817   0.3180   0.3262   0.3657
     0.3745   0.4105   0.4633   0.4984   0.5350   0.5990   0.6269   0.6611
     0.6733   0.6995   0.7891   0.7987   0.8326   0.8659   0.8740   0.8814
     0.8944   0.9382   0.9636   0.9717   0.9953   0.9992   1.0279   1.0639
     1.1011   1.1163   1.1291   1.1356   1.1582   1.1873   1.1976   1.2191
     1.2344   1.2431   1.2802   1.2958   1.3350   1.3525   1.3876   1.4074
     1.4218   1.4307   1.4806   1.4871   1.5209   1.5435   1.6426   1.6500
     1.6584   1.7127   1.8335   1.8639

          k =-0.3777 0.1263-0.1254 (306432 PWs)   bands (ev):

   -18.0148 -17.9728 -17.7350 -17.7180 -17.7043 -17.7026 -17.6744 -17.6332
   -15.8623 -15.8287 -14.3345 -14.3304 -14.3274 -14.3241 -14.3208 -14.3171
   -14.3161 -14.3093 -14.3078 -14.3064 -14.3054 -14.2996 -14.2990 -14.2973
   -14.2925 -14.2921 -14.2850 -14.2847 -14.2837 -14.2829 -14.2827 -14.2814
   -14.2809 -14.2807 -14.2800 -14.2782 -14.2776 -14.2768 -14.2765 -14.2750
   -14.2723 -14.2707 -14.2698 -14.2663 -14.2606 -14.2590 -14.2558 -14.2542
   -14.2497 -14.2481 -10.7046 -10.6857 -10.6682 -10.6636 -10.6619 -10.6500
    -9.8470  -9.8328  -9.6878  -9.6448  -9.5427  -9.5079  -9.5052  -9.4689
    -9.3919  -9.3791  -9.3446  -9.3367  -9.2903  -9.2758  -9.2593  -9.2509
    -9.1955  -9.1650  -9.1281  -9.1188  -9.0858  -9.0643  -9.0446  -9.0360
    -8.9862  -8.9793  -7.8480  -7.8237  -7.2634  -7.2294  -7.2099  -7.2078
    -7.1726  -7.1662  -7.1475  -7.1384  -7.1040  -7.0964  -7.0349  -7.0302
    -7.0249  -6.9834  -5.8370  -5.6668  -5.5179  -5.4974  -5.4060  -5.3516
    -5.2447  -5.1936  -5.0510  -5.0313  -5.0091  -4.9963  -4.9829  -4.9685
    -4.9025  -4.7544  -3.9620  -3.9487  -3.4135  -3.3783  -2.9834  -2.9703
    -2.9511  -2.9415  -2.9391  -2.9342  -2.9278  -2.9141  -2.9131  -2.9069
    -2.8860  -2.8756  -0.9998  -0.9704  -0.9304  -0.9014  -0.8538  -0.8332
    -0.7604  -0.6935  -0.3921  -0.3708  -0.3247  -0.2765  -0.1672  -0.0986
     0.0709   0.0881   0.1532   0.1763   0.2660   0.2866   0.3224   0.3346
     0.4064   0.4317   0.4479   0.5072   0.5099   0.5847   0.6068   0.6480
     0.6737   0.6903   0.8097   0.8264   0.8554   0.8602   0.8866   0.8983
     0.9203   0.9222   0.9487   0.9872   1.0052   1.0099   1.0322   1.0542
     1.0820   1.0992   1.1190   1.1408   1.1611   1.1888   1.2013   1.2232
     1.2471   1.2567   1.2741   1.2924   1.3150   1.3583   1.3730   1.3817
     1.4336   1.4443   1.4678   1.4775   1.5312   1.5545   1.6171   1.6467
     1.6538   1.7549   1.8054   1.9181

          k = 0.3777-0.1263-0.1254 (306432 PWs)   bands (ev):

   -18.0148 -17.9728 -17.7350 -17.7180 -17.7043 -17.7026 -17.6744 -17.6332
   -15.8623 -15.8287 -14.3345 -14.3304 -14.3274 -14.3241 -14.3208 -14.3171
   -14.3161 -14.3093 -14.3078 -14.3064 -14.3054 -14.2996 -14.2990 -14.2973
   -14.2925 -14.2921 -14.2850 -14.2847 -14.2837 -14.2829 -14.2827 -14.2814
   -14.2809 -14.2807 -14.2800 -14.2782 -14.2776 -14.2768 -14.2765 -14.2750
   -14.2723 -14.2707 -14.2698 -14.2663 -14.2606 -14.2590 -14.2558 -14.2542
   -14.2497 -14.2481 -10.7046 -10.6857 -10.6683 -10.6637 -10.6618 -10.6500
    -9.8467  -9.8329  -9.6869  -9.6471  -9.5434  -9.5084  -9.4979  -9.4738
    -9.3931  -9.3813  -9.3475  -9.3256  -9.2873  -9.2783  -9.2651  -9.2506
    -9.1980  -9.1630  -9.1279  -9.1189  -9.0829  -9.0665  -9.0461  -9.0342
    -8.9864  -8.9795  -7.8480  -7.8237  -7.2634  -7.2294  -7.2099  -7.2077
    -7.1726  -7.1662  -7.1475  -7.1384  -7.1041  -7.0964  -7.0353  -7.0297
    -7.0248  -6.9833  -5.8367  -5.6670  -5.5179  -5.4975  -5.4066  -5.3512
    -5.2444  -5.1941  -5.0500  -5.0304  -5.0092  -4.9964  -4.9827  -4.9684
    -4.9042  -4.7538  -3.9620  -3.9487  -3.4135  -3.3783  -2.9832  -2.9702
    -2.9513  -2.9425  -2.9403  -2.9355  -2.9270  -2.9140  -2.9113  -2.9064
    -2.8860  -2.8755  -1.0014  -0.9754  -0.9340  -0.8987  -0.8458  -0.8318
    -0.7609  -0.6950  -0.3942  -0.3574  -0.3382  -0.2729  -0.1647  -0.0955
     0.0661   0.0862   0.1502   0.1752   0.2653   0.2852   0.3314   0.3461
     0.3953   0.4281   0.4390   0.4989   0.5183   0.5747   0.6108   0.6490
     0.6697   0.7077   0.8128   0.8222   0.8494   0.8600   0.8887   0.8941
     0.9187   0.9286   0.9611   0.9806   0.9933   1.0181   1.0429   1.0636
     1.0701   1.1077   1.1211   1.1336   1.1744   1.1889   1.1959   1.2184
     1.2372   1.2643   1.2681   1.2909   1.3247   1.3455   1.3715   1.3858
     1.4359   1.4466   1.4609   1.4821   1.5221   1.5481   1.6145   1.6519
     1.6610   1.7407   1.8190   1.9215

          k =-0.3777-0.1263 0.3761 (306491 PWs)   bands (ev):

   -18.0148 -17.9728 -17.7350 -17.7180 -17.7043 -17.7026 -17.6744 -17.6332
   -15.8623 -15.8287 -14.3330 -14.3294 -14.3249 -14.3231 -14.3223 -14.3195
   -14.3164 -14.3094 -14.3079 -14.3066 -14.3056 -14.3004 -14.2995 -14.2974
   -14.2925 -14.2921 -14.2850 -14.2847 -14.2837 -14.2829 -14.2827 -14.2814
   -14.2809 -14.2807 -14.2800 -14.2782 -14.2776 -14.2768 -14.2766 -14.2750
   -14.2723 -14.2707 -14.2698 -14.2663 -14.2606 -14.2590 -14.2558 -14.2542
   -14.2497 -14.2481 -10.7041 -10.6848 -10.6688 -10.6634 -10.6628 -10.6502
    -9.8415  -9.8324  -9.6581  -9.6284  -9.5932  -9.5479  -9.4936  -9.4684
    -9.4371  -9.4153  -9.3216  -9.3094  -9.2701  -9.2667  -9.2219  -9.2186
    -9.1745  -9.1636  -9.1361  -9.1319  -9.0989  -9.0873  -9.0449  -9.0331
    -8.9914  -8.9840  -7.8482  -7.8240  -7.2634  -7.2296  -7.2061  -7.2038
    -7.1707  -7.1632  -7.1475  -7.1382  -7.1101  -7.1036  -7.0339  -7.0282
    -7.0247  -6.9832  -5.7125  -5.5468  -5.5252  -5.5094  -5.4891  -5.3463
    -5.2833  -5.1466  -5.0913  -5.0488  -5.0180  -5.0085  -4.9893  -4.9798
    -4.9623  -4.8944  -3.9621  -3.9488  -3.4133  -3.3781  -2.9836  -2.9715
    -2.9496  -2.9404  -2.9343  -2.9297  -2.9250  -2.9198  -2.9174  -2.9068
    -2.8861  -2.8757  -0.8607  -0.8395  -0.8016  -0.7767  -0.5889  -0.5597
    -0.5012  -0.4346  -0.4006  -0.3713  -0.3115  -0.2953  -0.1864  -0.1754
     0.0359   0.0918   0.1260   0.1706   0.1843   0.1970   0.2279   0.2423
     0.2774   0.2991   0.3689   0.3792   0.4679   0.5096   0.5888   0.6191
     0.6519   0.6734   0.7384   0.7500   0.7736   0.7801   0.8142   0.8233
     0.8488   0.8603   0.9218   0.9278   0.9391   0.9693   1.0307   1.0530
     1.1042   1.1084   1.1129   1.1482   1.1906   1.2048   1.2409   1.2551
     1.2646   1.2749   1.2869   1.3043   1.3261   1.3363   1.3461   1.3668
     1.3809   1.4189   1.4372   1.4562   1.4805   1.5146   1.5523   1.5603
     1.6458   1.6632   1.7294   1.7403

          k =-0.3777 0.1263-0.3761 (306491 PWs)   bands (ev):

   -18.0148 -17.9728 -17.7350 -17.7180 -17.7043 -17.7026 -17.6744 -17.6332
   -15.8623 -15.8287 -14.3330 -14.3295 -14.3249 -14.3231 -14.3223 -14.3195
   -14.3164 -14.3094 -14.3079 -14.3066 -14.3056 -14.3004 -14.2995 -14.2974
   -14.2925 -14.2921 -14.2850 -14.2847 -14.2837 -14.2829 -14.2827 -14.2814
   -14.2809 -14.2807 -14.2800 -14.2782 -14.2776 -14.2768 -14.2766 -14.2750
   -14.2723 -14.2707 -14.2698 -14.2663 -14.2606 -14.2590 -14.2558 -14.2542
   -14.2497 -14.2481 -10.7044 -10.6853 -10.6686 -10.6633 -10.6624 -10.6501
    -9.8427  -9.8324  -9.6618  -9.6176  -9.5931  -9.5556  -9.4908  -9.4718
    -9.4289  -9.4219  -9.3204  -9.3107  -9.2706  -9.2658  -9.2224  -9.2167
    -9.1795  -9.1519  -9.1445  -9.1317  -9.0991  -9.0780  -9.0489  -9.0454
    -8.9875  -8.9803  -7.8482  -7.8239  -7.2635  -7.2296  -7.2061  -7.2039
    -7.1706  -7.1632  -7.1477  -7.1379  -7.1101  -7.1035  -7.0339  -7.0284
    -7.0246  -6.9832  -5.7110  -5.5455  -5.5260  -5.5090  -5.4893  -5.3497
    -5.2863  -5.1434  -5.1036  -5.0413  -5.0156  -5.0091  -4.9869  -4.9773
    -4.9588  -4.8986  -3.9622  -3.9489  -3.4133  -3.3781  -2.9838  -2.9716
    -2.9498  -2.9399  -2.9348  -2.9288  -2.9263  -2.9189  -2.9175  -2.9072
    -2.8860  -2.8757  -0.8927  -0.8564  -0.8000  -0.7731  -0.5777  -0.5558
    -0.4826  -0.4311  -0.3825  -0.3587  -0.2787  -0.2735  -0.1881  -0.1773
     0.0277   0.0823   0.1260   0.1327   0.1644   0.1818   0.2318   0.2508
     0.2672   0.2867   0.3837   0.3959   0.4770   0.4893   0.5640   0.6028
     0.6620   0.6846   0.7054   0.7319   0.7723   0.7745   0.8172   0.8295
     0.8425   0.8720   0.9161   0.9213   0.9858   1.0242   1.0395   1.0537
     1.0918   1.0953   1.1145   1.1635   1.1907   1.2000   1.2329   1.2486
     1.2670   1.2710   1.2889   1.2994   1.3178   1.3264   1.3556   1.3627
     1.4006   1.4128   1.4263   1.4399   1.4897   1.5165   1.5384   1.5470
     1.6273   1.6598   1.7647   1.7890

          k = 0.3777-0.1263-0.3761 (306491 PWs)   bands (ev):

   -18.0148 -17.9728 -17.7350 -17.7180 -17.7043 -17.7026 -17.6744 -17.6332
   -15.8623 -15.8287 -14.3330 -14.3295 -14.3249 -14.3231 -14.3223 -14.3195
   -14.3164 -14.3094 -14.3079 -14.3066 -14.3056 -14.3004 -14.2995 -14.2974
   -14.2925 -14.2921 -14.2850 -14.2847 -14.2837 -14.2829 -14.2827 -14.2814
   -14.2809 -14.2807 -14.2800 -14.2782 -14.2776 -14.2768 -14.2766 -14.2750
   -14.2723 -14.2707 -14.2698 -14.2663 -14.2606 -14.2590 -14.2558 -14.2542
   -14.2497 -14.2481 -10.7044 -10.6853 -10.6686 -10.6635 -10.6621 -10.6501
    -9.8423  -9.8326  -9.6587  -9.6260  -9.5933  -9.5471  -9.4907  -9.4748
    -9.4328  -9.4201  -9.3192  -9.3025  -9.2754  -9.2686  -9.2219  -9.2179
    -9.1793  -9.1590  -9.1372  -9.1328  -9.0927  -9.0835  -9.0510  -9.0426
    -8.9876  -8.9805  -7.8482  -7.8239  -7.2635  -7.2296  -7.2061  -7.2039
    -7.1707  -7.1632  -7.1477  -7.1379  -7.1102  -7.1035  -7.0344  -7.0279
    -7.0246  -6.9831  -5.7102  -5.5489  -5.5241  -5.5091  -5.4884  -5.3503
    -5.2871  -5.1445  -5.0961  -5.0427  -5.0168  -5.0108  -4.9875  -4.9781
    -4.9600  -4.8964  -3.9622  -3.9489  -3.4133  -3.3781  -2.9836  -2.9715
    -2.9499  -2.9408  -2.9363  -2.9319  -2.9250  -2.9172  -2.9154  -2.9070
    -2.8859  -2.8756  -0.9010  -0.8451  -0.8163  -0.7608  -0.5823  -0.5510
    -0.4913  -0.4297  -0.3821  -0.3401  -0.2930  -0.2604  -0.1860  -0.1724
     0.0240   0.0819   0.0994   0.1420   0.1558   0.1755   0.2323   0.2510
     0.2747   0.2910   0.3837   0.3935   0.4583   0.4978   0.5759   0.6155
     0.6505   0.6850   0.7185   0.7299   0.7663   0.7801   0.8249   0.8304
     0.8445   0.8650   0.9041   0.9146   1.0113   1.0184   1.0450   1.0596
     1.0765   1.0797   1.1419   1.1652   1.1927   1.1993   1.2341   1.2437
     1.2575   1.2619   1.2787   1.2940   1.3235   1.3303   1.3567   1.3656
     1.4055   1.4080   1.4305   1.4486   1.4773   1.4990   1.5493   1.5526
     1.6363   1.6502   1.7673   1.7923

          k =-0.3777-0.3788 0.1254 (306404 PWs)   bands (ev):

   -18.0148 -17.9728 -17.7350 -17.7180 -17.7043 -17.7026 -17.6744 -17.6332
   -15.8623 -15.8287 -14.3339 -14.3308 -14.3269 -14.3242 -14.3204 -14.3168
   -14.3158 -14.3092 -14.3085 -14.3055 -14.3045 -14.3004 -14.2998 -14.2980
   -14.2924 -14.2921 -14.2850 -14.2847 -14.2837 -14.2831 -14.2829 -14.2815
   -14.2811 -14.2808 -14.2800 -14.2782 -14.2776 -14.2768 -14.2765 -14.2750
   -14.2723 -14.2707 -14.2697 -14.2663 -14.2606 -14.2590 -14.2559 -14.2542
[...]
    -7.0836  -7.0703  -7.0541  -7.0362  -7.0338  -7.0118  -7.0035  -6.9945
    -6.9912  -6.9687  -5.5255  -5.4274  -5.4081  -5.3744  -5.3283  -5.3094
    -5.1851  -5.1822  -5.1234  -5.0489  -5.0098  -4.9781  -4.9375  -4.9261
    -4.9127  -4.8935  -3.8555  -3.8309  -3.3131  -3.2970  -2.8878  -2.8824
    -2.8539  -2.8465  -2.8432  -2.8386  -2.8264  -2.8240  -2.8062  -2.8050
    -2.7952  -2.7916  -0.5514  -0.5335  -0.4740  -0.4272  -0.4037  -0.3991
    -0.3601  -0.3453  -0.2949  -0.2739  -0.2498  -0.2332  -0.0759  -0.0661
     0.0961   0.1315   0.1674   0.1726   0.2010   0.2292   0.2524   0.2586
     0.2861   0.3234   0.3496   0.3562   0.5957   0.5994   0.6560   0.6941
     0.6974   0.7428   0.7667   0.7783   0.7965   0.8152   0.8545   0.8669
     0.8945   0.9498   0.9590   0.9703   1.0235   1.0302   1.0515   1.0669
     1.1004   1.1307   1.1706   1.2143   1.2581   1.2767   1.2974   1.3055
     1.3125   1.3425   1.3474   1.3539   1.3817   1.3846   1.3993   1.4149
     1.4650   1.4808   1.4923   1.5072   1.5783   1.5862   1.6077   1.6108
     1.6503   1.6703   1.7066   1.7088

          k =-0.3795 0.3803-0.3770 (306449 PWs)   bands (ev):

   -17.9061 -17.8837 -17.7505 -17.7248 -17.6292 -17.6260 -17.6035 -17.5893
   -15.7650 -15.7404 -14.2488 -14.2448 -14.2382 -14.2349 -14.2293 -14.2254
   -14.2207 -14.2174 -14.2152 -14.2138 -14.2098 -14.2089 -14.2084 -14.2039
   -14.2021 -14.2018 -14.1999 -14.1978 -14.1972 -14.1971 -14.1937 -14.1927
   -14.1918 -14.1906 -14.1890 -14.1887 -14.1814 -14.1811 -14.1782 -14.1774
   -14.1741 -14.1722 -14.1703 -14.1700 -14.1698 -14.1673 -14.1668 -14.1653
   -14.1602 -14.1598 -10.6605 -10.6411 -10.5904 -10.5789 -10.5778 -10.5568
    -9.7173  -9.6945  -9.5590  -9.5248  -9.4992  -9.4670  -9.4507  -9.4441
    -9.3808  -9.3774  -9.2043  -9.1975  -9.1506  -9.1452  -9.1394  -9.1323
    -9.0954  -9.0827  -9.0665  -9.0526  -9.0219  -9.0167  -8.9969  -8.9862
    -8.9469  -8.9432  -7.7474  -7.7241  -7.1691  -7.1536  -7.1446  -7.1407
    -7.0836  -7.0703  -7.0541  -7.0363  -7.0337  -7.0119  -7.0035  -6.9946
    -6.9911  -6.9687  -5.5256  -5.4264  -5.4074  -5.3709  -5.3308  -5.3146
    -5.1846  -5.1801  -5.1346  -5.0335  -5.0039  -4.9872  -4.9372  -4.9247
    -4.9140  -4.8945  -3.8555  -3.8309  -3.3131  -3.2970  -2.8879  -2.8824
    -2.8529  -2.8482  -2.8430  -2.8376  -2.8273  -2.8245  -2.8067  -2.8046
    -2.7951  -2.7909  -0.5733  -0.5436  -0.4867  -0.4639  -0.4239  -0.3780
    -0.3179  -0.3102  -0.2834  -0.2727  -0.2158  -0.1906  -0.0774  -0.0690
     0.0601   0.0912   0.1486   0.1562   0.1868   0.1916   0.2509   0.2772
     0.3192   0.3363   0.3549   0.3685   0.5927   0.6142   0.6649   0.6672
     0.7074   0.7263   0.7377   0.7766   0.7977   0.8180   0.8484   0.8729
     0.8939   0.9299   0.9586   0.9705   1.0422   1.0575   1.0826   1.0927
     1.1059   1.1199   1.1767   1.1931   1.2582   1.2656   1.2929   1.3004
     1.3178   1.3408   1.3470   1.3649   1.3746   1.3817   1.4045   1.4156
     1.4596   1.4687   1.4961   1.5051   1.5730   1.5794   1.6014   1.6163
     1.6481   1.6656   1.7159   1.7286

          k = 0.3795-0.3803-0.3770 (306449 PWs)   bands (ev):

   -17.9061 -17.8837 -17.7505 -17.7248 -17.6292 -17.6260 -17.6035 -17.5893
   -15.7650 -15.7404 -14.2488 -14.2448 -14.2382 -14.2349 -14.2293 -14.2254
   -14.2207 -14.2174 -14.2152 -14.2138 -14.2098 -14.2089 -14.2084 -14.2039
   -14.2021 -14.2018 -14.1999 -14.1978 -14.1972 -14.1971 -14.1937 -14.1927
   -14.1918 -14.1906 -14.1890 -14.1887 -14.1814 -14.1811 -14.1782 -14.1774
   -14.1741 -14.1722 -14.1703 -14.1700 -14.1698 -14.1673 -14.1668 -14.1653
   -14.1602 -14.1598 -10.6605 -10.6411 -10.5904 -10.5788 -10.5780 -10.5569
    -9.7171  -9.6944  -9.5601  -9.5249  -9.4995  -9.4629  -9.4515  -9.4463
    -9.3800  -9.3786  -9.2021  -9.1954  -9.1512  -9.1474  -9.1438  -9.1298
    -9.0949  -9.0849  -9.0655  -9.0495  -9.0215  -9.0188  -8.9969  -8.9854
    -8.9490  -8.9415  -7.7474  -7.7241  -7.1691  -7.1536  -7.1446  -7.1407
    -7.0836  -7.0705  -7.0541  -7.0361  -7.0338  -7.0119  -7.0034  -6.9945
    -6.9912  -6.9687  -5.5244  -5.4278  -5.4085  -5.3705  -5.3313  -5.3125
    -5.1940  -5.1710  -5.1353  -5.0337  -5.0034  -4.9875  -4.9369  -4.9249
    -4.9138  -4.8945  -3.8555  -3.8309  -3.3131  -3.2970  -2.8886  -2.8834
    -2.8542  -2.8466  -2.8416  -2.8373  -2.8271  -2.8250  -2.8057  -2.8051
    -2.7950  -2.7915  -0.5914  -0.5410  -0.4791  -0.4717  -0.4207  -0.3697
    -0.3157  -0.3093  -0.2795  -0.2721  -0.1947  -0.1910  -0.0775  -0.0652
     0.0562   0.0759   0.1377   0.1398   0.1757   0.1894   0.2577   0.2850
     0.3315   0.3337   0.3566   0.3736   0.5886   0.6108   0.6627   0.6770
     0.7069   0.7225   0.7465   0.7713   0.8058   0.8189   0.8393   0.8812
     0.8907   0.9323   0.9580   0.9610   1.0523   1.0546   1.0791   1.0873
     1.1025   1.1305   1.1707   1.1967   1.2580   1.2754   1.2968   1.3001
     1.3216   1.3338   1.3454   1.3499   1.3783   1.3835   1.4045   1.4103
     1.4594   1.4666   1.4963   1.5086   1.5706   1.5904   1.6013   1.6091
     1.6585   1.6621   1.7111   1.7318

     highest occupied level (ev):     2.1489

!    total energy              =  -16545.20680413 Ry
     Harris-Foulkes estimate   =  -16545.20680413 Ry
     estimated scf accuracy    <          4.7E-10 Ry

     total all-electron energy =   -677464.473674 Ry

     The total energy is the sum of the following terms:

     one-electron contribution =    -861.99476867 Ry
     hartree contribution      =     620.03435989 Ry
     xc contribution           =    -765.67964199 Ry
     ewald contribution        =   -1166.78421057 Ry
     DFT-D3 Dispersion         =      -0.63121637 Ry
     one-center paw contrib.   =  -14370.15132641 Ry

     convergence has been achieved in  10 iterations

     Forces acting on atoms (cartesian axes, Ry/au):

     atom    1 type  1   force =    -0.00019189    0.00027472    0.00063769
     atom    2 type  1   force =    -0.00075533   -0.00088812    0.00122090
     atom    3 type  1   force =    -0.00105755   -0.00151448    0.00022169
     atom    4 type  1   force =    -0.00034716   -0.00104389    0.00029238
     atom    5 type  1   force =    -0.00113362   -0.00107211    0.00072962
     atom    6 type  1   force =    -0.00067415   -0.00140268    0.00051337
     atom    7 type  1   force =    -0.00045823   -0.00041011    0.00070373
     atom    8 type  1   force =    -0.00081544   -0.00008034    0.00045383
     atom    9 type  2   force =     0.00027308    0.00119765   -0.00009080
     atom   10 type  2   force =     0.00055509   -0.00098976   -0.00033263
     atom   11 type  2   force =     0.00025378    0.00234963   -0.00117669
     atom   12 type  2   force =     0.00060764    0.00136594    0.00019654
     atom   13 type  2   force =     0.00050391   -0.00010570    0.00001107
     atom   14 type  2   force =    -0.00090929    0.00040808   -0.00020610
     atom   15 type  2   force =     0.00000873    0.00035442    0.00105377
     atom   16 type  2   force =     0.00154758    0.00043488   -0.00036928
     atom   17 type  2   force =    -0.00116719    0.00147574    0.00000735
     atom   18 type  2   force =    -0.00059701    0.00063675   -0.00079092
     atom   19 type  2   force =     0.00089964    0.00017398    0.00008485
     atom   20 type  2   force =    -0.00052411   -0.00029495   -0.00036546
     atom   21 type  2   force =    -0.00085830    0.00041279   -0.00078247
     atom   22 type  2   force =     0.00112215    0.00028052   -0.00033196
     atom   23 type  2   force =    -0.00032373   -0.00039127   -0.00015488
     atom   24 type  2   force =     0.00015590    0.00039960    0.00085137
     atom   25 type  2   force =     0.00150927    0.00024394   -0.00068352
     atom   26 type  2   force =    -0.00092639    0.00161723   -0.00046948
     atom   27 type  2   force =     0.00058129    0.00127748   -0.00007352
     atom   28 type  2   force =     0.00074834   -0.00077020   -0.00028872
     atom   29 type  2   force =    -0.00073573    0.00047619   -0.00016481
     atom   30 type  2   force =     0.00024237    0.00127696   -0.00026457
     atom   31 type  2   force =     0.00048591   -0.00051006   -0.00053148
     atom   32 type  2   force =     0.00061293    0.00281775   -0.00044969
     atom   33 type  3   force =     0.00556905    0.00229745    0.00013083
     atom   34 type  3   force =    -0.00056369   -0.00079056    0.00053181
     atom   35 type  3   force =    -0.00053751   -0.00018235    0.00055729
     atom   36 type  3   force =     0.00054690    0.00033307    0.00091812
     atom   37 type  3   force =    -0.00026131   -0.00081505    0.00115298
     atom   38 type  3   force =     0.00026975    0.00024643    0.00000684
     atom   39 type  3   force =    -0.00182294   -0.00169231    0.00029195
     atom   40 type  3   force =     0.00089305   -0.00045828   -0.00000200
     atom   41 type  4   force =    -0.00250539   -0.00271603   -0.00021199
     atom   42 type  4   force =    -0.00324687    0.00039411   -0.00000838
     atom   43 type  4   force =    -0.00160406   -0.00106222   -0.00134701
     atom   44 type  4   force =    -0.00043946   -0.00106134   -0.00154341
     atom   45 type  4   force =    -0.00070389   -0.00237190   -0.00145863
     atom   46 type  4   force =     0.00064580   -0.00130312   -0.00169375
     atom   47 type  4   force =    -0.00196546   -0.00207968   -0.00117898
     atom   48 type  4   force =    -0.00027960    0.00034635   -0.00071149
     atom   49 type  4   force =     0.00071146   -0.00130150   -0.00048361
     atom   50 type  4   force =    -0.00163961    0.00176209    0.00034076
     atom   51 type  5   force =    -0.00086432   -0.00165056    0.00053438
     atom   52 type  5   force =    -0.00074463    0.00418906   -0.00017123
     atom   53 type  5   force =     0.00070059   -0.00305952    0.00045412
     atom   54 type  5   force =     0.00091056    0.00092618   -0.00004902
     atom   55 type  5   force =    -0.00083381   -0.00195924    0.00019748
     atom   56 type  5   force =     0.00234452   -0.00131151   -0.00191843
     atom   57 type  5   force =    -0.00077016    0.00193974    0.00099360
     atom   58 type  5   force =     0.00095961    0.00075388    0.00051731
     atom   59 type  5   force =    -0.00012992    0.00004998    0.00191420
     atom   60 type  5   force =     0.00020968   -0.00034028   -0.00107309
     atom   61 type  5   force =     0.00030139    0.00035143   -0.00041071
     atom   62 type  5   force =     0.00309141   -0.00112533   -0.00176296
     atom   63 type  5   force =    -0.00001959   -0.00025328    0.00111562
     atom   64 type  5   force =     0.00061317    0.00048082    0.00034734
     atom   65 type  5   force =    -0.00127522   -0.00044148    0.00223556
     atom   66 type  5   force =    -0.00043403    0.00031633   -0.00121276
     atom   67 type  5   force =    -0.00068912    0.00030911    0.00022310
     atom   68 type  5   force =    -0.00009417    0.00146294   -0.00186304
     atom   69 type  5   force =    -0.00069890    0.00080066    0.00327278
     atom   70 type  5   force =     0.00110374   -0.00120545   -0.00001346
     atom   71 type  5   force =     0.00068803    0.00011972   -0.00195761
     atom   72 type  5   force =     0.00057576    0.00007552    0.00192436
     atom   73 type  5   force =    -0.00057460    0.00090205   -0.00067772
     atom   74 type  5   force =     0.00079674    0.00120530   -0.00008142
     atom   75 type  5   force =     0.00032619    0.00021971    0.00166946
     atom   76 type  5   force =     0.00007702    0.00020671    0.00001107
     atom   77 type  5   force =    -0.00022300    0.00062192   -0.00039779
     atom   78 type  5   force =    -0.00064650    0.00044981    0.00033182
     atom   79 type  5   force =     0.00010635   -0.00031711   -0.00101036
     atom   80 type  5   force =     0.00316484   -0.00061901   -0.00243239
     atom   81 type  5   force =    -0.00133019    0.00051500    0.00042484
     atom   82 type  5   force =     0.00230605   -0.00148765    0.00248615
     atom   83 type  5   force =    -0.00190287    0.00093809    0.00005239
     atom   84 type  5   force =     0.00047307   -0.00009625   -0.00049060
     atom   85 type  5   force =    -0.00092687    0.00054250    0.00105123
     atom   86 type  5   force =     0.00231113   -0.00001757   -0.00051412
     atom   87 type  5   force =    -0.00038070    0.00123141    0.00103752
     atom   88 type  5   force =     0.00069912    0.00077589   -0.00088648
     atom   89 type  5   force =     0.00048061   -0.00035646    0.00315242
     atom   90 type  5   force =    -0.00066537    0.00029294   -0.00078600
     atom   91 type  5   force =     0.00024551   -0.00089905   -0.00210229
     atom   92 type  5   force =    -0.00002140    0.00162761    0.00037434
     atom   93 type  5   force =    -0.00094605    0.00022887   -0.00005386
     atom   94 type  5   force =    -0.00151568   -0.00085279    0.00059923
     atom   95 type  5   force =     0.00102197   -0.00121662   -0.00000662
     atom   96 type  5   force =     0.00048130   -0.00186978    0.00020911

     Total force =     0.019584     Total SCF correction =     0.000052


     Computing stress (Cartesian axis) and pressure

          total   stress  (Ry/bohr**3)                   (kbar)     P=   -0.64
  -0.00000449   0.00001346  -0.00000213         -0.66      1.98     -0.31
   0.00001346  -0.00000636   0.00000045          1.98     -0.94      0.07
  -0.00000213   0.00000045  -0.00000230         -0.31      0.07     -0.34


     number of scf cycles    =  21
     number of bfgs steps    =  20

     enthalpy old            =  -16545.2062187223 Ry
     enthalpy new            =  -16545.2068041334 Ry

     CASE: enthalpy_new < enthalpy_old

     new trust radius        =       0.0466520956 bohr
     new conv_thr            =       0.0000000059 Ry

     new unit-cell volume =  13643.98416 a.u.^3 (  2021.82983 Ang^3 )
     density =      4.09984 g/cm^3

CELL_PARAMETERS (alat= 24.15259000)
   0.988170805   0.000000000   0.000000000
   0.000000000   0.985530664   0.000000000
   0.000000000   0.000000000   0.994369784

ATOMIC_POSITIONS (crystal)
Pb       0.010963970  -0.002118737   0.001844187
Pb       0.010008722   0.000352239   0.499868355
Pb       0.004836494   0.497176933   0.001267191
Pb       0.006112982   0.496368179   0.501493898
Pb       0.506562260  -0.003784119   0.001144500
Pb       0.504292184  -0.002785860   0.500937605
Pb       0.509843737   0.499932333   0.000546056
Pb       0.510496617   0.498171797   0.502547033
I        0.258617905   0.058909925   0.008283220
I       -0.030720139   0.246553459  -0.019968269
I       -0.010002158  -0.006250755   0.252554415
I        0.256629207   0.060159544   0.498718517
I       -0.028741835   0.247052278   0.521705821
I        0.027844266  -0.032424101   0.752515859
I        0.257137566   0.470757749   0.018934601
I        0.064820810   0.746134058   0.007448131
I       -0.002614995   0.489997830   0.251420117
I        0.258883713   0.471705477   0.477083893
I        0.062164476   0.746790193   0.502474168
I        0.021186946   0.490876520   0.751714989
I        0.758929948  -0.029226780  -0.023188730
I        0.563352741   0.246498613   0.003609991
I        0.520637283  -0.009029583   0.251770108
I        0.757041183  -0.026589735   0.520679501
I        0.563317402   0.246556748   0.508062904
I        0.496200558  -0.009566465   0.751880149
I        0.756970509   0.560046128  -0.000682533
I        0.469947466   0.747085309   0.022429989
I        0.527055434   0.467986785   0.252606463
I        0.758289806   0.558731442   0.508233857
I        0.470393972   0.746655829   0.481169826
I        0.490099509   0.492267888   0.752493326
C        0.252547586   0.287022330   0.248448170
C        0.282824169   0.278747216   0.748573115
C        0.276599832   0.785642883   0.251848678
C        0.292789894   0.780328592   0.751219094
C        0.792865130   0.280222518   0.252541285
C        0.776384471   0.285076622   0.750536044
C        0.783342455   0.779101484   0.249126393
C        0.751972359   0.787492715   0.748212314
N        0.159081496   0.241532393   0.249879289
N        0.344511342   0.238086873   0.250182934
N        0.197762142   0.196871740   0.759854568
N        0.210256997   0.687642341   0.262723512
N        0.203819530   0.702565883   0.755463902
N        0.703234195   0.202742881   0.256857501
N        0.710937512   0.186797245   0.761323952
N        0.699803864   0.694923698   0.257652843
N        0.658512007   0.741941176   0.750392410
N        0.843956109   0.738575104   0.749570179
H        0.254288583   0.373635994   0.245004437
H        0.147162961   0.161161975   0.252701225
H        0.094088184   0.289933276   0.248154894
H        0.352931911   0.157535585   0.252768172
H        0.411287155   0.284152689   0.248583509
H        0.199295926   0.143542889   0.697625417
H        0.123350414   0.230552998   0.761061238
H        0.206586944   0.153646770   0.829469961
H        0.274609105   0.317739257   0.671993463
H        0.359649569   0.239142110   0.754023535
H        0.275023984   0.336218360   0.812591944
H        0.209693646   0.643029328   0.194357738
H        0.132429939   0.706225380   0.279484114
H        0.235672880   0.638935680   0.323860704
H        0.253674489   0.827002241   0.179553948
H        0.359735698   0.762242499   0.247833061
H        0.263865982   0.835452464   0.321177843
H        0.154882123   0.709390000   0.689965999
H        0.157183065   0.713986760   0.822248676
H        0.229953741   0.625228663   0.757738263
H        0.336511909   0.768504320   0.677905711
H        0.344525536   0.767114742   0.818857472
H        0.259760228   0.860402020   0.754085272
H        0.654846479   0.209327135   0.190734992
H        0.656215699   0.215124437   0.323395094
H        0.729293823   0.125301708   0.259996493
H        0.836366922   0.268156732   0.178961166
H        0.844727082   0.266525209   0.320161163
H        0.760093679   0.360549796   0.255725101
H        0.712606673   0.140651975   0.693982227
H        0.632588465   0.204396064   0.775935447
H        0.735186590   0.139652940   0.823908212
H        0.752550228   0.326595717   0.678830504
H        0.859570211   0.262506423   0.745342477
H        0.763964128   0.334615506   0.819992945
H        0.703748987   0.642578572   0.194364788
H        0.624631913   0.727109172   0.257884641
H        0.708332657   0.651110355   0.327017508
H        0.773945035   0.820461335   0.173785556
H        0.861054598   0.740754121   0.253008206
H        0.774529174   0.834281417   0.315173859
H        0.753539512   0.873827699   0.744394215
H        0.646636533   0.661785640   0.753672039
H        0.593641380   0.790257578   0.748721161
H        0.852472436   0.658211207   0.752442069
H        0.910534110   0.784696507   0.747530222



     Writing output data file 0.25FA2_vcrelax4.save/
     NEW-OLD atomic charge density approx. for the potential
     extrapolated charge  407.62785, renormalised to  408.00000

     total cpu time spent up to now is   468906.6 secs

     Self-consistent Calculation

     iteration #  1     ecut=   120.00 Ry     beta= 0.70
     Davidson diagonalization with overlap
     ethr =  1.00E-06,  avg # of iterations =  4.0

     total cpu time spent up to now is   472106.1 secs

     total energy              =  -16545.20538095 Ry
     Harris-Foulkes estimate   =  -16545.77059156 Ry
     estimated scf accuracy    <       0.00305122 Ry

     iteration #  2     ecut=   120.00 Ry     beta= 0.70
     Davidson diagonalization with overlap
     ethr =  7.48E-07,  avg # of iterations =  3.0

     total cpu time spent up to now is   474093.3 secs

     total energy              =  -16545.20689830 Ry
     Harris-Foulkes estimate   =  -16545.20769707 Ry
     estimated scf accuracy    <       0.00213774 Ry

     iteration #  3     ecut=   120.00 Ry     beta= 0.70
     Davidson diagonalization with overlap
