
     Program PWSCF v.6.4 starts on 16May2020 at 11:17:55 

     This program is part of the open-source Quantum ESPRESSO suite
     for quantum simulation of materials; please cite
         "P. Giannozzi et al., J. Phys.:Condens. Matter 21 395502 (2009);
         "P. Giannozzi et al., J. Phys.:Condens. Matter 29 465901 (2017);
          URL http://www.quantum-espresso.org", 
     in publications or presentations arising from this work. More details at
     http://www.quantum-espresso.org/quote

     Parallel version (MPI), running on    32 processors

     MPI processes distributed on     1 nodes
     K-points division:     npool     =       4
     R & G space division:  proc/nbgrp/npool/nimage =       8
     Waiting for input...
     Reading input from standard input
     Message from routine read_cards :
     DEPRECATED: no units specified in CELL_PARAMETERS card

     Current dimensions of program PWSCF are:
     Max number of different atomic species (ntypx) = 10
     Max number of k-points (npk) =  40000
     Max angular momentum in pseudopotentials (lmaxx) =  3
               file Pb.pbe-dn-kjpaw_psl.1.0.0.UPF: wavefunction(s)  6S 6P 5D renormalized
               file I.pbe-n-kjpaw_psl.1.0.0.UPF: wavefunction(s)  5S renormalized
               file C.pbe-n-kjpaw_psl.1.0.0.UPF: wavefunction(s)  2S 2P renormalized
               file N.pbe-n-kjpaw_psl.1.0.0.UPF: wavefunction(s)  2S renormalized
               file H.pbe-kjpaw_psl.1.0.0.UPF: wavefunction(s)  1S renormalized

     --------------------------------------------
     Parameters for DFT-D3 Dispersion Correction:
     --------------------------------------------
       Reference C6 values for interpolation: 

         atom   Coordination number   C6
         H          0.912             6.05
         H          0.000            15.18
         C          0.000            98.23
         C          0.987            86.49
         C          1.998            58.72
         C          2.999            51.56
         C          3.984            36.41
         N          0.000            50.54
         N          0.994            44.25
         N          2.014            39.35
         N          2.990            31.16
         I          0.000           703.93
         I          0.997           717.00
         Pb         0.000          1477.63
         Pb         0.938          1266.00
         Pb         1.936          1088.91
         Pb         2.908          1048.37
         Pb         3.910           910.57

       Values used:

         atom   Coordination number  R0_AB[au]  C6      C8
         Pb         4.848            4.041    910.57 144158.32
         Pb         4.857            4.041    910.57 144158.31
         Pb         4.814            4.041    910.57 144158.38
         Pb         4.849            4.041    910.57 144158.32
         Pb         4.847            4.041    910.57 144158.32
         Pb         4.832            4.041    910.57 144158.35
         Pb         4.866            4.041    910.57 144158.29
         Pb         4.851            4.041    910.57 144158.31
         I          1.869            3.532    717.00  65855.98
         I          1.993            3.532    717.00  65856.00
         I          1.962            3.532    717.00  65856.00
         I          1.848            3.532    717.00  65855.98
         I          1.993            3.532    717.00  65856.00
         I          2.071            3.532    717.00  65856.00
         I          1.873            3.532    717.00  65855.99
         I          2.004            3.532    717.00  65856.00
         I          1.999            3.532    717.00  65856.00
         I          1.902            3.532    717.00  65855.99
         I          1.953            3.532    717.00  65856.00
         I          2.033            3.532    717.00  65856.00
         I          1.909            3.532    717.00  65855.99
         I          1.945            3.532    717.00  65855.99
         I          2.034            3.532    717.00  65856.00
         I          1.886            3.532    717.00  65855.99
         I          2.007            3.532    717.00  65856.00
         I          2.000            3.532    717.00  65856.00
         I          1.861            3.532    717.00  65855.98
         I          1.995            3.532    717.00  65856.00
         I          2.071            3.532    717.00  65856.00
         I          1.873            3.532    717.00  65855.99
         I          2.006            3.532    717.00  65856.00
         I          1.973            3.532    717.00  65856.00
         C          3.058            2.750     51.11   1478.05
         C          4.018            2.750     36.62   1059.14
         C          4.021            2.750     36.62   1059.00
         C          4.022            2.750     36.61   1058.95
         C          4.022            2.750     36.61   1058.93
         C          4.020            2.750     36.62   1059.01
         C          4.019            2.750     36.62   1059.08
         C          3.057            2.750     51.11   1478.21
         N          3.107            2.478     31.23    688.97
         N          3.099            2.478     31.24    689.07
         N          4.039            2.478     31.16    687.49
         N          4.040            2.478     31.16    687.49
         N          4.046            2.478     31.16    687.49
         N          4.046            2.478     31.16    687.49
         N          4.040            2.478     31.16    687.49
         N          4.039            2.478     31.16    687.49
         N          3.108            2.478     31.23    688.97
         N          3.098            2.478     31.24    689.08
         H          1.013            2.062      6.17     74.58
         H          1.054            2.062      6.14     74.22
         H          1.026            2.062      6.16     74.45
         H          1.031            2.062      6.16     74.41
         H          1.031            2.062      6.16     74.41
         H          1.023            2.062      6.16     74.49
         H          1.034            2.062      6.15     74.38
         H          1.038            2.062      6.15     74.35
         H          1.004            2.062      6.18     74.68
         H          1.005            2.062      6.18     74.67
         H          1.006            2.062      6.18     74.65
         H          1.022            2.062      6.16     74.50
         H          1.025            2.062      6.16     74.46
         H          1.042            2.062      6.15     74.32
         H          1.006            2.062      6.18     74.66
         H          1.009            2.062      6.17     74.62
         H          1.006            2.062      6.18     74.65
         H          1.025            2.062      6.16     74.47
         H          1.063            2.062      6.13     74.15
         H          1.020            2.062      6.16     74.51
         H          1.005            2.062      6.18     74.66
         H          1.006            2.062      6.18     74.65
         H          1.007            2.062      6.17     74.64
         H          1.025            2.062      6.16     74.47
         H          1.061            2.062      6.14     74.17
         H          1.022            2.062      6.16     74.50
         H          1.005            2.062      6.18     74.67
         H          1.006            2.062      6.18     74.65
         H          1.007            2.062      6.17     74.64
         H          1.021            2.062      6.16     74.50
         H          1.026            2.062      6.16     74.46
         H          1.041            2.062      6.15     74.33
         H          1.006            2.062      6.18     74.66
         H          1.009            2.062      6.17     74.62
         H          1.006            2.062      6.18     74.65
         H          1.022            2.062      6.16     74.49
         H          1.035            2.062      6.15     74.37
         H          1.038            2.062      6.15     74.35
         H          1.004            2.062      6.18     74.68
         H          1.005            2.062      6.18     74.67
         H          1.007            2.062      6.18     74.65
         H          1.012            2.062      6.17     74.59
         H          1.063            2.062      6.13     74.16
         H          1.026            2.062      6.16     74.45
         H          1.032            2.062      6.15     74.40
         H          1.031            2.062      6.16     74.41

         Molecular C6 ( Ry / a.u.^6 ) =   1214988.82


     Subspace diagonalization in iterative solution of the eigenvalue problem:
     a serial algorithm will be used


     Parallelization info
     --------------------
     sticks:   dense  smooth     PW     G-vecs:    dense   smooth      PW
     Min        2792    2792    721               310159   310159   40583
     Max        2794    2794    722               310161   310161   40584
     Sum       22343   22343   5771              2481281  2481281  324667



     bravais-lattice index     =            0
     lattice parameter (alat)  =      24.1526  a.u.
     unit-cell volume          =   13972.4627 (a.u.)^3
     number of atoms/cell      =           96
     number of atomic types    =            5
     number of electrons       =       408.00
     number of Kohn-Sham states=          204
     kinetic-energy cutoff     =     120.0000  Ry
     charge density cutoff     =     480.0000  Ry
     convergence threshold     =      1.0E-07
     mixing beta               =       0.7000
     number of iterations used =            8  plain     mixing
     Exchange-correlation      = SLA PW PBX PBC ( 1  4  3  4 0 0)
     nstep                     =          150


     celldm(1)=  24.152590  celldm(2)=   0.000000  celldm(3)=   0.000000
     celldm(4)=   0.000000  celldm(5)=   0.000000  celldm(6)=   0.000000

     crystal axes: (cart. coord. in units of alat)
               a(1) = (   1.007125   0.000000   0.000000 )  
               a(2) = (   0.000000   0.996024   0.000000 )  
               a(3) = (   0.000000   0.000000   0.988618 )  

     reciprocal axes: (cart. coord. in units 2 pi/alat)
               b(1) = (  0.992925  0.000000  0.000000 )  
               b(2) = (  0.000000  1.003992  0.000000 )  
               b(3) = (  0.000000  0.000000  1.011513 )  


     PseudoPot. # 1 for Pb read from file:
     ../../Pseudopotential/Pb.pbe-dn-kjpaw_psl.1.0.0.UPF
     MD5 check sum: 684fc8fbce61a260853528575e4d9ab7
     Pseudo is Projector augmented-wave + core cor, Zval = 14.0
     Generated using "atomic" code by A. Dal Corso v.6.3
     Shape of augmentation charge: PSQ
     Using radial grid of 1281 points,  6 beta functions with: 
                l(1) =   0
                l(2) =   0
                l(3) =   1
                l(4) =   1
                l(5) =   2
                l(6) =   2
     Q(r) pseudized with 0 coefficients 


     PseudoPot. # 2 for I  read from file:
     ../../Pseudopotential/I.pbe-n-kjpaw_psl.1.0.0.UPF
     MD5 check sum: cd3d296c3308a581e1559a0c8a554cb5
     Pseudo is Projector augmented-wave + core cor, Zval =  7.0
     Generated using "atomic" code by A. Dal Corso v.6.3
     Shape of augmentation charge: PSQ
     Using radial grid of 1247 points,  6 beta functions with: 
                l(1) =   0
                l(2) =   0
                l(3) =   1
                l(4) =   1
                l(5) =   2
                l(6) =   2
     Q(r) pseudized with 0 coefficients 


     PseudoPot. # 3 for C  read from file:
     ../../Pseudopotential/C.pbe-n-kjpaw_psl.1.0.0.UPF
     MD5 check sum: 5f16ad9a65e90284d1d834d4ab3b0f7d
     Pseudo is Projector augmented-wave + core cor, Zval =  4.0
     Generated using "atomic" code by A. Dal Corso v.6.3
     Shape of augmentation charge: PSQ
     Using radial grid of 1073 points,  4 beta functions with: 
                l(1) =   0
                l(2) =   0
                l(3) =   1
                l(4) =   1
     Q(r) pseudized with 0 coefficients 


     PseudoPot. # 4 for N  read from file:
     ../../Pseudopotential/N.pbe-n-kjpaw_psl.1.0.0.UPF
     MD5 check sum: 14c48229446f9f2d411169a3abcbc3fa
     Pseudo is Projector augmented-wave + core cor, Zval =  5.0
     Generated using "atomic" code by A. Dal Corso v.6.3
     Shape of augmentation charge: PSQ
     Using radial grid of 1085 points,  4 beta functions with: 
                l(1) =   0
                l(2) =   0
                l(3) =   1
                l(4) =   1
     Q(r) pseudized with 0 coefficients 


     PseudoPot. # 5 for H  read from file:
     ../../Pseudopotential/H.pbe-kjpaw_psl.1.0.0.UPF
     MD5 check sum: d81a744832360e4a8af0b0b5b123bc2a
     Pseudo is Projector augmented-wave, Zval =  1.0
     Generated using "atomic" code by A. Dal Corso v.6.3MaX
     Shape of augmentation charge: PSQ
     Using radial grid of  929 points,  2 beta functions with: 
                l(1) =   0
                l(2) =   0
     Q(r) pseudized with 0 coefficients 


     atomic species   valence    mass     pseudopotential
        Pb            14.00   207.97600     Pb( 1.00)
        I              7.00   126.90400     I ( 1.00)
        C              4.00    12.00000     C ( 1.00)
        N              5.00    14.00300     N ( 1.00)
        H              1.00     1.00700     H ( 1.00)

     No symmetry found



   Cartesian axes

     site n.     atom                  positions (alat units)
         1           Pb  tau(   1) = (   0.0026901   0.0000377   0.0006426  )
         2           Pb  tau(   2) = (  -0.0002130  -0.0018002   0.4970793  )
         3           Pb  tau(   3) = (  -0.0035209   0.4968704   0.0008207  )
         4           Pb  tau(   4) = (   0.0006313   0.4941416   0.4942111  )
         5           Pb  tau(   5) = (   0.5039356  -0.0043470  -0.0001489  )
         6           Pb  tau(   6) = (   0.5006782  -0.0012347   0.4948870  )
         7           Pb  tau(   7) = (   0.5038800   0.4956820   0.0036441  )
         8           Pb  tau(   8) = (   0.5061651   0.4988238   0.4959151  )
         9           I   tau(   9) = (   0.2597905   0.0315551  -0.0080119  )
        10           I   tau(  10) = (   0.0163003   0.2502470  -0.0154105  )
        11           I   tau(  11) = (   0.0080223  -0.0139044   0.2480332  )
        12           I   tau(  12) = (   0.2577777   0.0307569   0.4930213  )
        13           I   tau(  13) = (   0.0149657   0.2478010   0.5066450  )
        14           I   tau(  14) = (  -0.0024995  -0.0251036   0.7423425  )
        15           I   tau(  15) = (   0.2580030   0.5184245   0.0045065  )
        16           I   tau(  16) = (   0.0409629   0.7481264  -0.0129848  )
        17           I   tau(  17) = (   0.0084526   0.4849529   0.2467903  )
        18           I   tau(  18) = (   0.2605616   0.5176924   0.4762014  )
        19           I   tau(  19) = (   0.0384752   0.7451002   0.4973523  )
        20           I   tau(  20) = (   0.0183726   0.4897074   0.7411017  )
        21           I   tau(  21) = (   0.7629145   0.0171841  -0.0183382  )
        22           I   tau(  22) = (   0.5439894   0.2477106   0.0031055  )
        23           I   tau(  23) = (   0.5228950  -0.0100510   0.2471962  )
        24           I   tau(  24) = (   0.7620794   0.0232500   0.4975206  )
        25           I   tau(  25) = (   0.5417662   0.2495853   0.4808063  )
        26           I   tau(  26) = (   0.5124979  -0.0128747   0.7409325  )
        27           I   tau(  27) = (   0.7605989   0.5305801  -0.0016425  )
        28           I   tau(  28) = (   0.5163654   0.7460341   0.0119502  )
        29           I   tau(  29) = (   0.5030351   0.4725332   0.2481674  )
        30           I   tau(  30) = (   0.7635554   0.5286239   0.4869342  )
        31           I   tau(  31) = (   0.5215305   0.7481911   0.4790973  )
        32           I   tau(  32) = (   0.5140171   0.4849647   0.7425856  )
        33           C   tau(  33) = (   0.2540362   0.2669674   0.2507778  )
        34           C   tau(  34) = (   0.2850662   0.2801782   0.7443580  )
        35           C   tau(  35) = (   0.2875864   0.7834748   0.2498969  )
        36           C   tau(  36) = (   0.2899575   0.7827255   0.7443443  )
        37           C   tau(  37) = (   0.7935621   0.2846906   0.2502383  )
        38           C   tau(  38) = (   0.7912562   0.2855219   0.7438189  )
        39           C   tau(  39) = (   0.7887161   0.7784322   0.2501648  )
        40           C   tau(  40) = (   0.7570226   0.7647713   0.7445773  )
        41           N   tau(  41) = (   0.1627591   0.2198519   0.2505688  )
        42           N   tau(  42) = (   0.3442873   0.2178606   0.2511619  )
        43           N   tau(  43) = (   0.1995502   0.1988124   0.7489342  )
        44           N   tau(  44) = (   0.2044242   0.6997136   0.2539184  )
        45           N   tau(  45) = (   0.2068886   0.6990695   0.7492045  )
        46           N   tau(  46) = (   0.7102455   0.2013694   0.2554479  )
        47           N   tau(  47) = (   0.7080001   0.2018257   0.7483780  )
        48           N   tau(  48) = (   0.7035340   0.6968281   0.2549796  )
        49           N   tau(  49) = (   0.6657688   0.7180076   0.7448015  )
        50           N   tau(  50) = (   0.8476295   0.7160328   0.7448111  )
        51           H   tau(  51) = (   0.2548817   0.3521045   0.2510465  )
        52           H   tau(  52) = (   0.1532676   0.1405562   0.2523982  )
        53           H   tau(  53) = (   0.0960809   0.2630325   0.2514047  )
        54           H   tau(  54) = (   0.3514338   0.1384613   0.2526666  )
        55           H   tau(  55) = (   0.4118965   0.2597044   0.2527804  )
        56           H   tau(  56) = (   0.1769652   0.1753582   0.6747822  )
        57           H   tau(  57) = (   0.1338618   0.2266984   0.7878192  )
        58           H   tau(  58) = (   0.2233130   0.1333574   0.7910034  )
        59           H   tau(  59) = (   0.3028818   0.2979965   0.6625290  )
        60           H   tau(  60) = (   0.3545117   0.2495377   0.7838927  )
        61           H   tau(  61) = (   0.2582057   0.3505824   0.7849403  )
        62           H   tau(  62) = (   0.1844579   0.6740193   0.1798356  )
        63           H   tau(  63) = (   0.1372508   0.7261783   0.2907514  )
        64           H   tau(  64) = (   0.2287859   0.6353833   0.2975461  )
        65           H   tau(  65) = (   0.3055278   0.8019956   0.1682295  )
        66           H   tau(  66) = (   0.3575692   0.7545675   0.2897420  )
        67           H   tau(  67) = (   0.2585714   0.8527281   0.2909286  )
        68           H   tau(  68) = (   0.1764373   0.6822298   0.6759637  )
        69           H   tau(  69) = (   0.1450318   0.7216876   0.7974614  )
        70           H   tau(  70) = (   0.2348587   0.6305302   0.7818165  )
        71           H   tau(  71) = (   0.3093460   0.7986841   0.6625370  )
        72           H   tau(  72) = (   0.3592060   0.7553630   0.7866028  )
        73           H   tau(  73) = (   0.2598455   0.8534884   0.7820092  )
        74           H   tau(  74) = (   0.6805473   0.1836617   0.1821208  )
        75           H   tau(  75) = (   0.6480406   0.2245594   0.3028807  )
        76           H   tau(  76) = (   0.7376259   0.1332911   0.2895419  )
        77           H   tau(  77) = (   0.8128499   0.3006634   0.1683965  )
        78           H   tau(  78) = (   0.8626942   0.2571290   0.2924656  )
        79           H   tau(  79) = (   0.7639708   0.3554455   0.2882279  )
        80           H   tau(  80) = (   0.6878343   0.1754185   0.6744777  )
        81           H   tau(  81) = (   0.6409366   0.2287495   0.7850070  )
        82           H   tau(  82) = (   0.7324974   0.1378048   0.7923667  )
        83           H   tau(  83) = (   0.8085613   0.3034791   0.6619896  )
        84           H   tau(  84) = (   0.8616894   0.2566535   0.7830407  )
        85           H   tau(  85) = (   0.7623109   0.3552790   0.7842169  )
        86           H   tau(  86) = (   0.6819143   0.6721228   0.1808670  )
        87           H   tau(  87) = (   0.6374708   0.7248131   0.2929646  )
        88           H   tau(  88) = (   0.7269419   0.6321904   0.2983511  )
        89           H   tau(  89) = (   0.8063298   0.7964525   0.1683876  )
        90           H   tau(  90) = (   0.8582776   0.7480685   0.2896482  )
        91           H   tau(  91) = (   0.7618066   0.8486656   0.2909596  )
        92           H   tau(  92) = (   0.7579962   0.8505129   0.7441585  )
        93           H   tau(  93) = (   0.6560136   0.6381897   0.7469729  )
        94           H   tau(  94) = (   0.5990038   0.7615004   0.7469958  )
        95           H   tau(  95) = (   0.8549667   0.6362226   0.7465901  )
        96           H   tau(  96) = (   0.9151819   0.7582496   0.7460081  )

     number of k points=    32
                       cart. coord. in units 2pi/alat
        k(    1) = (   0.1241156   0.1254990   0.1264391), wk =   0.0625000
        k(    2) = (   0.1241156   0.1254990   0.3793173), wk =   0.0625000
        k(    3) = (   0.1241156   0.3764971   0.1264391), wk =   0.0625000
        k(    4) = (   0.1241156   0.3764971   0.3793173), wk =   0.0625000
        k(    5) = (   0.3723469   0.1254990   0.1264391), wk =   0.0625000
        k(    6) = (   0.3723469   0.1254990   0.3793173), wk =   0.0625000
        k(    7) = (   0.3723469   0.3764971   0.1264391), wk =   0.0625000
        k(    8) = (   0.3723469   0.3764971   0.3793173), wk =   0.0625000
        k(    9) = (  -0.1241156  -0.1254990   0.1264391), wk =   0.0625000
        k(   10) = (  -0.1241156   0.1254990  -0.1264391), wk =   0.0625000
        k(   11) = (   0.1241156  -0.1254990  -0.1264391), wk =   0.0625000
        k(   12) = (  -0.1241156  -0.1254990   0.3793173), wk =   0.0625000
        k(   13) = (  -0.1241156   0.1254990  -0.3793173), wk =   0.0625000
        k(   14) = (   0.1241156  -0.1254990  -0.3793173), wk =   0.0625000
        k(   15) = (  -0.1241156  -0.3764971   0.1264391), wk =   0.0625000
        k(   16) = (  -0.1241156   0.3764971  -0.1264391), wk =   0.0625000
        k(   17) = (   0.1241156  -0.3764971  -0.1264391), wk =   0.0625000
        k(   18) = (  -0.1241156  -0.3764971   0.3793173), wk =   0.0625000
        k(   19) = (  -0.1241156   0.3764971  -0.3793173), wk =   0.0625000
        k(   20) = (   0.1241156  -0.3764971  -0.3793173), wk =   0.0625000
        k(   21) = (  -0.3723469  -0.1254990   0.1264391), wk =   0.0625000
        k(   22) = (  -0.3723469   0.1254990  -0.1264391), wk =   0.0625000
        k(   23) = (   0.3723469  -0.1254990  -0.1264391), wk =   0.0625000
        k(   24) = (  -0.3723469  -0.1254990   0.3793173), wk =   0.0625000
        k(   25) = (  -0.3723469   0.1254990  -0.3793173), wk =   0.0625000
        k(   26) = (   0.3723469  -0.1254990  -0.3793173), wk =   0.0625000
        k(   27) = (  -0.3723469  -0.3764971   0.1264391), wk =   0.0625000
        k(   28) = (  -0.3723469   0.3764971  -0.1264391), wk =   0.0625000
        k(   29) = (   0.3723469  -0.3764971  -0.1264391), wk =   0.0625000
        k(   30) = (  -0.3723469  -0.3764971   0.3793173), wk =   0.0625000
        k(   31) = (  -0.3723469   0.3764971  -0.3793173), wk =   0.0625000
        k(   32) = (   0.3723469  -0.3764971  -0.3793173), wk =   0.0625000

     Dense  grid:  2481281 G-vectors     FFT dimensions: ( 180, 180, 180)

     Estimated max dynamical RAM per process >       3.26 GB

     Estimated total dynamical RAM >     104.16 GB

     Initial potential from superposition of free atoms

     starting charge  407.97850, renormalised to  408.00000
     Starting wfcs are  286 randomized atomic wfcs
     Checking if some PAW data can be deallocated... 

     total cpu time spent up to now is      960.9 secs

     Self-consistent Calculation

     iteration #  1     ecut=   120.00 Ry     beta= 0.70
     Davidson diagonalization with overlap
     ethr =  1.00E-02,  avg # of iterations =  2.0

     total cpu time spent up to now is     2698.8 secs

     total energy              =  -16543.22243750 Ry
     Harris-Foulkes estimate   =  -16546.77692451 Ry
     estimated scf accuracy    <       5.94940681 Ry

     iteration #  2     ecut=   120.00 Ry     beta= 0.70
     Davidson diagonalization with overlap
     ethr =  1.46E-03,  avg # of iterations =  4.0

     total cpu time spent up to now is     5123.9 secs

     total energy              =  -16544.51329198 Ry
     Harris-Foulkes estimate   =  -16545.90457087 Ry
     estimated scf accuracy    <       2.50107782 Ry

     iteration #  3     ecut=   120.00 Ry     beta= 0.70
     Davidson diagonalization with overlap
     ethr =  6.13E-04,  avg # of iterations =  4.0

     total cpu time spent up to now is     6955.6 secs

     total energy              =  -16545.08812250 Ry
     Harris-Foulkes estimate   =  -16545.14894694 Ry
     estimated scf accuracy    <       0.13185412 Ry

     iteration #  4     ecut=   120.00 Ry     beta= 0.70
     Davidson diagonalization with overlap
     ethr =  3.23E-05,  avg # of iterations =  4.0

     total cpu time spent up to now is     9309.8 secs

     total energy              =  -16545.12327813 Ry
     Harris-Foulkes estimate   =  -16545.14295914 Ry
     estimated scf accuracy    <       0.03834655 Ry

     iteration #  5     ecut=   120.00 Ry     beta= 0.70
     Davidson diagonalization with overlap
     ethr =  9.40E-06,  avg # of iterations =  4.0

     total cpu time spent up to now is    11245.0 secs

     total energy              =  -16545.13073304 Ry
     Harris-Foulkes estimate   =  -16545.13262768 Ry
     estimated scf accuracy    <       0.00363305 Ry

     iteration #  6     ecut=   120.00 Ry     beta= 0.70
     Davidson diagonalization with overlap
     ethr =  8.90E-07,  avg # of iterations =  4.0

     total cpu time spent up to now is    13465.9 secs

     total energy              =  -16545.13169382 Ry
     Harris-Foulkes estimate   =  -16545.13208348 Ry
     estimated scf accuracy    <       0.00089948 Ry

     iteration #  7     ecut=   120.00 Ry     beta= 0.70
     Davidson diagonalization with overlap
     ethr =  2.20E-07,  avg # of iterations =  4.0

     total cpu time spent up to now is    15441.2 secs

     total energy              =  -16545.13187525 Ry
     Harris-Foulkes estimate   =  -16545.13193219 Ry
     estimated scf accuracy    <       0.00012262 Ry

     iteration #  8     ecut=   120.00 Ry     beta= 0.70
     Davidson diagonalization with overlap
     ethr =  3.01E-08,  avg # of iterations =  4.0

     total cpu time spent up to now is    17560.3 secs

     total energy              =  -16545.13191010 Ry
     Harris-Foulkes estimate   =  -16545.13191726 Ry
     estimated scf accuracy    <       0.00001853 Ry

     iteration #  9     ecut=   120.00 Ry     beta= 0.70
     Davidson diagonalization with overlap
     ethr =  4.54E-09,  avg # of iterations =  4.0

     total cpu time spent up to now is    19625.5 secs

     total energy              =  -16545.13191371 Ry
     Harris-Foulkes estimate   =  -16545.13191456 Ry
     estimated scf accuracy    <       0.00000169 Ry

     iteration # 10     ecut=   120.00 Ry     beta= 0.70
     Davidson diagonalization with overlap
     ethr =  4.14E-10,  avg # of iterations =  4.0

     total cpu time spent up to now is    21709.6 secs

     total energy              =  -16545.13191414 Ry
     Harris-Foulkes estimate   =  -16545.13191434 Ry
     estimated scf accuracy    <       0.00000042 Ry

     iteration # 11     ecut=   120.00 Ry     beta= 0.70
     Davidson diagonalization with overlap
     ethr =  1.04E-10,  avg # of iterations =  4.0

     total cpu time spent up to now is    23766.1 secs

     End of self-consistent calculation

          k = 0.1241 0.1255 0.1264 (310202 PWs)   bands (ev):

   -18.2055 -18.1572 -17.7956 -17.7909 -17.7862 -17.7835 -17.7652 -17.7607
   -15.9848 -15.9433 -14.4015 -14.3924 -14.3898 -14.3879 -14.3859 -14.3825
   -14.3804 -14.3777 -14.3761 -14.3717 -14.3696 -14.3674 -14.3577 -14.3566
   -14.3540 -14.3519 -14.3507 -14.3500 -14.3496 -14.3449 -14.3446 -14.3442
   -14.3432 -14.3418 -14.3412 -14.3404 -14.3399 -14.3399 -14.3393 -14.3387
   -14.3384 -14.3373 -14.3355 -14.3330 -14.3192 -14.3151 -14.3119 -14.3091
   -14.3074 -14.3050 -10.8278 -10.8256 -10.8197 -10.8170 -10.7589 -10.7568
   -10.0496  -9.9924  -9.7919  -9.6859  -9.6431  -9.5967  -9.5357  -9.4866
    -9.4610  -9.4465  -9.3946  -9.3918  -9.3597  -9.3504  -9.3099  -9.2987
    -9.2673  -9.2589  -9.2274  -9.2230  -9.2105  -9.1551  -9.1402  -9.0998
    -9.0678  -9.0524  -8.0213  -7.9675  -7.3997  -7.3421  -7.3362  -7.3322
    -7.3285  -7.3190  -7.2902  -7.2779  -7.1366  -7.1307  -7.1241  -7.1196
    -7.1057  -7.1032  -6.0468  -5.6371  -5.6339  -5.6092  -5.5793  -5.5199
    -5.2139  -5.1853  -5.1776  -5.1665  -5.1625  -5.1286  -5.1150  -5.1036
    -5.0720  -4.6875  -4.1803  -4.0932  -3.5777  -3.5503  -3.0964  -3.0944
    -3.0864  -3.0808  -3.0275  -3.0210  -3.0103  -3.0037  -2.9938  -2.9762
    -2.9449  -2.9250  -1.1141  -1.0712  -1.0230  -0.9947  -0.9312  -0.9189
    -0.8741  -0.8375  -0.8147  -0.8123  -0.7720  -0.7103  -0.3840  -0.3074
     0.0730   0.0787   0.1659   0.2098   0.2295   0.3114   0.3307   0.4199
     0.4345   0.4558   0.4919   0.5645   0.5819   0.6187   0.6286   0.6514
     0.6888   0.7126   0.7334   0.7369   0.7517   0.7868   0.8009   0.8367
     0.8736   0.8799   0.8914   0.9057   0.9187   0.9720   0.9813   0.9865
     0.9990   1.0235   1.0400   1.0756   1.0814   1.0909   1.1223   1.1544
     1.1609   1.1755   1.1780   1.1901   1.2041   1.2724   1.3098   1.3694
     1.4007   1.4191   1.4354   1.4728   1.5197   1.5591   1.5893   1.6207
     1.6638   1.7562   1.7724   1.9384

          k = 0.1241 0.1255 0.3793 (310175 PWs)   bands (ev):

   -18.2055 -18.1572 -17.7956 -17.7909 -17.7862 -17.7835 -17.7652 -17.7607
   -15.9848 -15.9433 -14.3996 -14.3901 -14.3890 -14.3879 -14.3863 -14.3834
   -14.3818 -14.3783 -14.3763 -14.3717 -14.3696 -14.3674 -14.3586 -14.3566
   -14.3549 -14.3519 -14.3507 -14.3500 -14.3496 -14.3449 -14.3446 -14.3442
   -14.3432 -14.3418 -14.3412 -14.3404 -14.3399 -14.3399 -14.3393 -14.3387
   -14.3384 -14.3373 -14.3355 -14.3330 -14.3192 -14.3151 -14.3119 -14.3091
   -14.3074 -14.3050 -10.8277 -10.8254 -10.8194 -10.8173 -10.7589 -10.7569
   -10.0475  -9.9908  -9.7637  -9.7026  -9.6436  -9.5832  -9.5751  -9.5314
    -9.5066  -9.4835  -9.3614  -9.3579  -9.3148  -9.3036  -9.2983  -9.2829
    -9.2610  -9.2529  -9.2261  -9.2170  -9.1952  -9.1782  -9.1694  -9.1279
    -9.0652  -9.0581  -8.0214  -7.9676  -7.3998  -7.3423  -7.3309  -7.3280
    -7.3247  -7.3189  -7.2961  -7.2825  -7.1357  -7.1296  -7.1239  -7.1177
    -7.1079  -7.1060  -5.9105  -5.7015  -5.6318  -5.6038  -5.5035  -5.4483
    -5.2973  -5.2477  -5.1862  -5.1851  -5.1668  -5.1653  -5.1212  -5.1158
    -5.0530  -4.8588  -4.1805  -4.0934  -3.5774  -3.5500  -3.0925  -3.0914
    -3.0882  -3.0834  -3.0271  -3.0206  -3.0104  -3.0037  -2.9933  -2.9765
    -2.9451  -2.9251  -0.9597  -0.9311  -0.9034  -0.8993  -0.8604  -0.8369
    -0.8152  -0.7527  -0.6152  -0.6125  -0.5481  -0.4884  -0.3896  -0.2867
     0.0045   0.0368   0.1265   0.1306   0.1910   0.1981   0.2105   0.2634
     0.2800   0.3064   0.3322   0.3569   0.3643   0.4238   0.6156   0.6310
     0.6818   0.6897   0.7204   0.7478   0.7752   0.7976   0.8332   0.8387
     0.8449   0.8566   0.8749   0.8936   0.9340   0.9369   0.9476   0.9687
     1.0342   1.0504   1.0627   1.1038   1.1083   1.1259   1.1421   1.1476
     1.1645   1.1746   1.1949   1.2081   1.2110   1.2504   1.2793   1.3011
     1.3238   1.3274   1.4020   1.4033   1.4705   1.5436   1.5566   1.5728
     1.6277   1.6359   1.6850   1.7134

          k = 0.1241 0.3765 0.1264 (310244 PWs)   bands (ev):

   -18.2055 -18.1572 -17.7956 -17.7909 -17.7862 -17.7835 -17.7652 -17.7607
   -15.9848 -15.9433 -14.4012 -14.3918 -14.3893 -14.3882 -14.3856 -14.3819
   -14.3801 -14.3778 -14.3770 -14.3715 -14.3703 -14.3669 -14.3580 -14.3566
   -14.3544 -14.3519 -14.3507 -14.3500 -14.3496 -14.3450 -14.3449 -14.3443
   -14.3432 -14.3418 -14.3412 -14.3407 -14.3400 -14.3399 -14.3393 -14.3387
   -14.3384 -14.3372 -14.3355 -14.3330 -14.3192 -14.3151 -14.3119 -14.3091
   -14.3074 -14.3050 -10.8269 -10.8245 -10.8202 -10.8184 -10.7590 -10.7569
   -10.0481  -9.9918  -9.7591  -9.7008  -9.6519  -9.5910  -9.5692  -9.5121
    -9.4681  -9.4618  -9.3986  -9.3958  -9.3559  -9.3533  -9.2838  -9.2684
    -9.2466  -9.2402  -9.2232  -9.2175  -9.1810  -9.1637  -9.1598  -9.1066
    -9.0777  -9.0714  -8.0211  -7.9673  -7.3997  -7.3420  -7.3362  -7.3322
    -7.3282  -7.3192  -7.2902  -7.2782  -7.1354  -7.1320  -7.1232  -7.1205
    -7.1055  -7.1033  -5.9241  -5.7320  -5.6348  -5.6065  -5.5160  -5.4110
    -5.3453  -5.2279  -5.1831  -5.1770  -5.1669  -5.1653  -5.1175  -5.1142
    -5.0011  -4.8295  -4.1803  -4.0933  -3.5777  -3.5504  -3.0961  -3.0943
    -3.0851  -3.0819  -3.0276  -3.0149  -3.0104  -3.0010  -2.9961  -2.9824
    -2.9451  -2.9252  -1.0896  -1.0607  -1.0238  -0.9743  -0.9029  -0.8995
    -0.7828  -0.7730  -0.5466  -0.5375  -0.4429  -0.4121  -0.3382  -0.3186
     0.0378   0.0634   0.1053   0.1359   0.2039   0.2103   0.2430   0.2482
     0.2704   0.2901   0.3557   0.3895   0.4235   0.5249   0.5721   0.5920
     0.6147   0.6441   0.7352   0.7653   0.7732   0.7935   0.8028   0.8340
     0.8435   0.8814   0.8873   0.8994   0.9213   0.9377   0.9757   0.9998
     1.0146   1.0341   1.0434   1.0663   1.1017   1.1052   1.1244   1.1294
     1.1449   1.2226   1.2400   1.2517   1.2741   1.2973   1.3225   1.3244
     1.3473   1.3966   1.4178   1.4347   1.4664   1.4771   1.5137   1.5580
     1.5690   1.6024   1.7923   1.8009

          k = 0.1241 0.3765 0.3793 (310130 PWs)   bands (ev):

   -18.2055 -18.1572 -17.7956 -17.7909 -17.7862 -17.7835 -17.7652 -17.7607
   -15.9848 -15.9433 -14.3992 -14.3892 -14.3886 -14.3880 -14.3865 -14.3828
   -14.3818 -14.3778 -14.3774 -14.3716 -14.3702 -14.3669 -14.3589 -14.3566
   -14.3552 -14.3519 -14.3507 -14.3500 -14.3496 -14.3450 -14.3448 -14.3443
   -14.3432 -14.3418 -14.3412 -14.3407 -14.3400 -14.3399 -14.3393 -14.3387
   -14.3384 -14.3372 -14.3355 -14.3330 -14.3192 -14.3151 -14.3119 -14.3091
   -14.3074 -14.3050 -10.8267 -10.8243 -10.8203 -10.8185 -10.7591 -10.7570
   -10.0469  -9.9898  -9.7325  -9.6875  -9.6415  -9.6022  -9.5992  -9.5580
    -9.5375  -9.5132  -9.3360  -9.3295  -9.3081  -9.2927  -9.2896  -9.2730
    -9.2497  -9.2453  -9.2280  -9.2242  -9.2018  -9.1812  -9.1473  -9.1216
    -9.0827  -9.0790  -8.0212  -7.9674  -7.3997  -7.3422  -7.3310  -7.3280
    -7.3247  -7.3190  -7.2961  -7.2827  -7.1349  -7.1304  -7.1235  -7.1177
    -7.1080  -7.1059  -5.7930  -5.6429  -5.6156  -5.5974  -5.5633  -5.3917
    -5.3894  -5.2386  -5.2023  -5.1869  -5.1661  -5.1586  -5.1497  -5.1187
    -5.1004  -4.9932  -4.1805  -4.0934  -3.5775  -3.5501  -3.0925  -3.0914
    -3.0879  -3.0838  -3.0274  -3.0142  -3.0105  -2.9998  -2.9965  -2.9826
    -2.9452  -2.9252  -0.9057  -0.8873  -0.8366  -0.8195  -0.6923  -0.6763
    -0.6161  -0.5685  -0.5117  -0.4969  -0.4540  -0.4364  -0.3416  -0.2865
    -0.0424   0.0294   0.0478   0.0869   0.1063   0.1259   0.1488   0.1588
     0.2566   0.2630   0.2871   0.3402   0.4068   0.4667   0.5101   0.5147
     0.5645   0.5745   0.6190   0.6258   0.6586   0.6601   0.7453   0.7586
     0.7983   0.8057   0.8263   0.8679   0.9109   0.9285   0.9966   1.0148
     1.0554   1.0648   1.1001   1.1105   1.1133   1.1375   1.1574   1.1692
     1.1727   1.1892   1.2338   1.2392   1.2465   1.2665   1.2983   1.3032
     1.3190   1.3410   1.3605   1.3955   1.4203   1.4299   1.4742   1.4953
     1.5469   1.5770   1.6055   1.6155

          k = 0.3723 0.1255 0.1264 (310103 PWs)   bands (ev):

   -18.2055 -18.1572 -17.7956 -17.7909 -17.7862 -17.7835 -17.7652 -17.7607
   -15.9847 -15.9432 -14.4014 -14.3923 -14.3896 -14.3878 -14.3858 -14.3821
   -14.3802 -14.3769 -14.3758 -14.3723 -14.3697 -14.3682 -14.3579 -14.3566
   -14.3541 -14.3519 -14.3507 -14.3500 -14.3496 -14.3450 -14.3449 -14.3442
   -14.3432 -14.3418 -14.3412 -14.3405 -14.3400 -14.3399 -14.3393 -14.3387
   -14.3384 -14.3373 -14.3355 -14.3330 -14.3192 -14.3151 -14.3119 -14.3091
   -14.3074 -14.3050 -10.8279 -10.8256 -10.8193 -10.8173 -10.7591 -10.7570
   -10.0458  -9.9886  -9.7714  -9.7304  -9.6153  -9.5720  -9.5676  -9.5221
    -9.4595  -9.4538  -9.3984  -9.3968  -9.3641  -9.3610  -9.3136  -9.3052
    -9.2453  -9.2382  -9.2012  -9.1961  -9.1664  -9.1508  -9.1445  -9.1157
    -9.0942  -9.0787  -8.0216  -7.9678  -7.3995  -7.3418  -7.3361  -7.3318
    -7.3287  -7.3194  -7.2902  -7.2781  -7.1361  -7.1303  -7.1244  -7.1198
    -7.1055  -7.1034  -5.9353  -5.7622  -5.6352  -5.6068  -5.4804  -5.4225
    -5.3297  -5.2536  -5.1837  -5.1812  -5.1647  -5.1630  -5.1170  -5.1133
    -4.9696  -4.8138  -4.1806  -4.0935  -3.5778  -3.5504  -3.0934  -3.0916
    -3.0886  -3.0843  -3.0272  -3.0197  -3.0100  -3.0028  -2.9925  -2.9757
    -2.9465  -2.9266  -1.0994  -1.0838  -1.0031  -0.9721  -0.9517  -0.9379
    -0.8411  -0.8297  -0.5148  -0.4921  -0.4679  -0.4303  -0.3062  -0.2647
     0.0533   0.0569   0.0775   0.0901   0.2181   0.2279   0.2538   0.2815
     0.2945   0.3356   0.3976   0.4275   0.4342   0.5260   0.5312   0.5510
     0.5682   0.6026   0.7362   0.7688   0.7759   0.8066   0.8131   0.8281
     0.8345   0.8588   0.8805   0.8980   0.9326   0.9404   0.9677   0.9980
     1.0164   1.0380   1.0687   1.0776   1.0861   1.1201   1.1231   1.1399
     1.1736   1.1886   1.2266   1.2430   1.2683   1.2913   1.3150   1.3325
     1.3685   1.4021   1.4203   1.4232   1.4473   1.4829   1.5330   1.5740
     1.6143   1.6479   1.7993   1.8163

          k = 0.3723 0.1255 0.3793 (310171 PWs)   bands (ev):

   -18.2055 -18.1572 -17.7956 -17.7909 -17.7862 -17.7835 -17.7652 -17.7607
   -15.9847 -15.9432 -14.3996 -14.3900 -14.3888 -14.3874 -14.3865 -14.3827
   -14.3820 -14.3774 -14.3759 -14.3723 -14.3698 -14.3682 -14.3588 -14.3566
   -14.3550 -14.3519 -14.3507 -14.3500 -14.3496 -14.3450 -14.3449 -14.3442
   -14.3432 -14.3418 -14.3411 -14.3406 -14.3400 -14.3398 -14.3393 -14.3387
   -14.3384 -14.3373 -14.3355 -14.3330 -14.3192 -14.3151 -14.3119 -14.3091
   -14.3074 -14.3050 -10.8278 -10.8255 -10.8193 -10.8173 -10.7592 -10.7571
   -10.0449  -9.9870  -9.7408  -9.6969  -9.6634  -9.6188  -9.5685  -9.5432
    -9.5076  -9.4959  -9.3604  -9.3581  -9.3200  -9.3113  -9.2946  -9.2912
    -9.2410  -9.2233  -9.2117  -9.2044  -9.1921  -9.1616  -9.1501  -9.1344
    -9.0921  -9.0840  -8.0217  -7.9679  -7.3995  -7.3419  -7.3310  -7.3280
    -7.3247  -7.3190  -7.2962  -7.2826  -7.1355  -7.1293  -7.1236  -7.1179
    -7.1077  -7.1061  -5.8022  -5.6401  -5.6298  -5.6106  -5.5825  -5.4214
    -5.3533  -5.2300  -5.1854  -5.1838  -5.1656  -5.1640  -5.1235  -5.1181
    -5.0989  -4.9785  -4.1807  -4.0936  -3.5775  -3.5501  -3.0921  -3.0905
    -3.0890  -3.0843  -3.0271  -3.0196  -3.0100  -3.0022  -2.9923  -2.9754
    -2.9468  -2.9268  -0.9583  -0.9560  -0.8926  -0.8921  -0.6964  -0.6661
    -0.6027  -0.5419  -0.4685  -0.4606  -0.4104  -0.4034  -0.3282  -0.3122
    -0.0263   0.0259   0.0469   0.0834   0.1084   0.1277   0.1668   0.1792
     0.2301   0.2499   0.2783   0.3019   0.3827   0.4132   0.4902   0.5150
     0.5953   0.5992   0.6755   0.6820   0.6852   0.7193   0.7419   0.7518
     0.7898   0.7951   0.8300   0.8365   0.8807   0.8921   1.0089   1.0132
     1.0443   1.0491   1.0733   1.0990   1.1094   1.1581   1.1651   1.1717
     1.2000   1.2047   1.2146   1.2245   1.2590   1.2707   1.3005   1.3052
     1.3250   1.3407   1.3692   1.3859   1.4078   1.4152   1.4273   1.4655
     1.5984   1.6029   1.6769   1.6970

          k = 0.3723 0.3765 0.1264 (310168 PWs)   bands (ev):

   -18.2055 -18.1572 -17.7956 -17.7909 -17.7862 -17.7835 -17.7652 -17.7607
   -15.9847 -15.9432 -14.4011 -14.3917 -14.3893 -14.3880 -14.3856 -14.3815
   -14.3796 -14.3772 -14.3768 -14.3717 -14.3708 -14.3676 -14.3582 -14.3566
   -14.3545 -14.3519 -14.3507 -14.3500 -14.3496 -14.3454 -14.3449 -14.3443
   -14.3432 -14.3418 -14.3412 -14.3409 -14.3400 -14.3399 -14.3393 -14.3387
   -14.3384 -14.3372 -14.3355 -14.3330 -14.3192 -14.3151 -14.3119 -14.3091
   -14.3074 -14.3050 -10.8273 -10.8244 -10.8202 -10.8184 -10.7589 -10.7569
   -10.0454  -9.9878  -9.7379  -9.7105  -9.6631  -9.6215  -9.5460  -9.5127
    -9.4733  -9.4698  -9.4125  -9.4091  -9.3718  -9.3700  -9.2751  -9.2541
    -9.2193  -9.2178  -9.1967  -9.1880  -9.1785  -9.1628  -9.1549  -9.1181
    -9.1081  -9.0919  -8.0213  -7.9676  -7.3995  -7.3418  -7.3362  -7.3318
    -7.3289  -7.3192  -7.2906  -7.2782  -7.1349  -7.1314  -7.1233  -7.1207
    -7.1057  -7.1032  -5.8186  -5.6565  -5.6343  -5.6123  -5.6055  -5.4700
    -5.3238  -5.1947  -5.1850  -5.1680  -5.1612  -5.1429  -5.1186  -5.1138
    -5.0885  -4.9510  -4.1805  -4.0935  -3.5778  -3.5504  -3.0940  -3.0909
    -3.0884  -3.0842  -3.0274  -3.0143  -3.0091  -2.9998  -2.9954  -2.9821
    -2.9466  -2.9267  -1.0705  -1.0655  -1.0133  -0.9868  -0.6600  -0.5894
    -0.5850  -0.5327  -0.4965  -0.4856  -0.4623  -0.4044  -0.3161  -0.2733
    -0.0154   0.0751   0.0951   0.1162   0.1399   0.1707   0.1962   0.2252
     0.2307   0.2883   0.2953   0.3461   0.3470   0.4084   0.4525   0.5065
     0.5490   0.5841   0.6280   0.6448   0.6947   0.7570   0.7921   0.7994
     0.8203   0.8528   0.8795   0.9058   0.9332   0.9482   0.9630   0.9696
     0.9933   1.0046   1.0530   1.0581   1.0948   1.0952   1.1209   1.1326
     1.1458   1.1734   1.2077   1.2741   1.2962   1.3029   1.3340   1.3451
     1.3637   1.3813   1.3969   1.4337   1.4389   1.4837   1.5070   1.5334
     1.5371   1.5934   1.6203   1.6294

          k = 0.3723 0.3765 0.3793 (310163 PWs)   bands (ev):

   -18.2055 -18.1572 -17.7956 -17.7909 -17.7862 -17.7835 -17.7652 -17.7607
   -15.9847 -15.9432 -14.3992 -14.3890 -14.3884 -14.3875 -14.3868 -14.3823
   -14.3817 -14.3772 -14.3770 -14.3717 -14.3709 -14.3676 -14.3591 -14.3566
   -14.3553 -14.3519 -14.3507 -14.3500 -14.3496 -14.3454 -14.3449 -14.3443
   -14.3432 -14.3418 -14.3411 -14.3409 -14.3400 -14.3398 -14.3393 -14.3387
   -14.3384 -14.3373 -14.3355 -14.3330 -14.3192 -14.3151 -14.3119 -14.3091
   -14.3074 -14.3050 -10.8270 -10.8245 -10.8202 -10.8184 -10.7590 -10.7570
   -10.0447  -9.9865  -9.7085  -9.6736  -9.6526  -9.6085  -9.6032  -9.5964
    -9.5439  -9.5324  -9.3409  -9.3331  -9.3043  -9.2971  -9.2900  -9.2722
    -9.2345  -9.2198  -9.2160  -9.2017  -9.1737  -9.1664  -9.1584  -9.1325
    -9.1067  -9.0998  -8.0214  -7.9677  -7.3995  -7.3419  -7.3310  -7.3281
    -7.3248  -7.3190  -7.2963  -7.2827  -7.1346  -7.1300  -7.1233  -7.1180
    -7.1076  -7.1063  -5.6927  -5.6355  -5.6078  -5.5258  -5.4883  -5.4741
    -5.3549  -5.3167  -5.2787  -5.2052  -5.1714  -5.1664  -5.1600  -5.1294
    -5.1064  -5.0851  -4.1806  -4.0936  -3.5775  -3.5501  -3.0919  -3.0903
    -3.0893  -3.0843  -3.0274  -3.0139  -3.0091  -2.9995  -2.9947  -2.9816
    -2.9468  -2.9268  -0.7300  -0.7163  -0.6866  -0.6268  -0.5879  -0.5768
    -0.5321  -0.5221  -0.5141  -0.4861  -0.4226  -0.4046  -0.3083  -0.2948
    -0.0314  -0.0264   0.0300   0.0708   0.0803   0.1029   0.1326   0.1459
     0.1642   0.1939   0.2115   0.2149   0.4331   0.4877   0.5077   0.5267
     0.5330   0.5403   0.5920   0.6151   0.6281   0.6341   0.6992   0.7056
     0.7524   0.7564   0.7843   0.7882   0.8303   0.8723   0.8798   0.8992
     0.9422   0.9896   1.0162   1.0811   1.1509   1.1576   1.1799   1.1884
     1.2011   1.2094   1.2103   1.2280   1.2463   1.2531   1.2778   1.2835
     1.3280   1.3355   1.3604   1.3629   1.4074   1.4307   1.4575   1.4884
     1.5207   1.5250   1.5375   1.5489

          k =-0.1241-0.1255 0.1264 (310202 PWs)   bands (ev):

   -18.2055 -18.1572 -17.7956 -17.7909 -17.7862 -17.7835 -17.7652 -17.7607
   -15.9848 -15.9433 -14.4015 -14.3924 -14.3898 -14.3879 -14.3859 -14.3825
   -14.3804 -14.3777 -14.3761 -14.3717 -14.3696 -14.3674 -14.3577 -14.3566
   -14.3540 -14.3519 -14.3507 -14.3500 -14.3496 -14.3449 -14.3446 -14.3442
   -14.3432 -14.3418 -14.3412 -14.3404 -14.3399 -14.3399 -14.3393 -14.3387
   -14.3384 -14.3373 -14.3355 -14.3330 -14.3192 -14.3151 -14.3119 -14.3091
   -14.3074 -14.3050 -10.8278 -10.8256 -10.8196 -10.8171 -10.7589 -10.7568
   -10.0496  -9.9924  -9.7911  -9.6866  -9.6458  -9.5954  -9.5360  -9.4869
    -9.4608  -9.4390  -9.4003  -9.3878  -9.3611  -9.3575  -9.3107  -9.2949
    -9.2640  -9.2590  -9.2276  -9.2230  -9.2121  -9.1547  -9.1401  -9.1002
    -9.0681  -9.0522  -8.0213  -7.9675  -7.3997  -7.3421  -7.3362  -7.3323
    -7.3284  -7.3189  -7.2902  -7.2778  -7.1365  -7.1307  -7.1241  -7.1198
    -7.1057  -7.1031  -6.0466  -5.6384  -5.6327  -5.6091  -5.5803  -5.5190
    -5.2127  -5.1853  -5.1790  -5.1665  -5.1618  -5.1283  -5.1150  -5.1049
    -5.0718  -4.6872  -4.1803  -4.0932  -3.5777  -3.5503  -3.0964  -3.0946
    -3.0862  -3.0805  -3.0275  -3.0206  -3.0103  -3.0040  -2.9937  -2.9765
    -2.9450  -2.9251  -1.1170  -1.0763  -1.0172  -0.9916  -0.9331  -0.9153
    -0.8784  -0.8351  -0.8191  -0.8119  -0.7690  -0.7102  -0.3831  -0.3070
     0.0729   0.0804   0.1653   0.2094   0.2285   0.3134   0.3298   0.4161
     0.4354   0.4497   0.4917   0.5644   0.5920   0.6260   0.6304   0.6514
     0.6789   0.7153   0.7274   0.7452   0.7616   0.7828   0.8013   0.8367
     0.8652   0.8759   0.8847   0.9004   0.9217   0.9641   0.9701   0.9734
     1.0165   1.0458   1.0481   1.0746   1.0867   1.0915   1.0979   1.1559
     1.1671   1.1712   1.1772   1.1925   1.2148   1.2737   1.3051   1.3685
     1.4098   1.4134   1.4337   1.4716   1.5139   1.5600   1.5924   1.6242
     1.6639   1.7486   1.7755   1.9419

          k =-0.1241 0.1255-0.1264 (310202 PWs)   bands (ev):

   -18.2055 -18.1572 -17.7956 -17.7909 -17.7862 -17.7835 -17.7652 -17.7607
   -15.9848 -15.9433 -14.4015 -14.3924 -14.3898 -14.3879 -14.3859 -14.3825
   -14.3804 -14.3777 -14.3761 -14.3717 -14.3696 -14.3674 -14.3577 -14.3566
   -14.3540 -14.3519 -14.3507 -14.3500 -14.3496 -14.3449 -14.3446 -14.3442
   -14.3432 -14.3418 -14.3412 -14.3404 -14.3399 -14.3399 -14.3393 -14.3387
   -14.3384 -14.3373 -14.3355 -14.3330 -14.3192 -14.3151 -14.3119 -14.3091
   -14.3074 -14.3050 -10.8280 -10.8257 -10.8198 -10.8170 -10.7587 -10.7566
   -10.0498  -9.9925  -9.7923  -9.6859  -9.6409  -9.5961  -9.5378  -9.4873
    -9.4615  -9.4415  -9.4013  -9.3902  -9.3615  -9.3555  -9.3048  -9.2960
    -9.2672  -9.2598  -9.2288  -9.2215  -9.2044  -9.1566  -9.1423  -9.1019
    -9.0660  -9.0535  -8.0213  -7.9675  -7.3997  -7.3421  -7.3362  -7.3322
    -7.3283  -7.3192  -7.2900  -7.2780  -7.1365  -7.1308  -7.1241  -7.1197
    -7.1055  -7.1034  -6.0456  -5.6400  -5.6338  -5.6092  -5.5804  -5.5167
    -5.2112  -5.1865  -5.1850  -5.1668  -5.1653  -5.1285  -5.1137  -5.1023
    -5.0672  -4.6858  -4.1803  -4.0932  -3.5777  -3.5503  -3.0970  -3.0941
    -3.0867  -3.0803  -3.0276  -3.0208  -3.0104  -3.0035  -2.9939  -2.9763
    -2.9449  -2.9250  -1.1218  -1.0743  -1.0608  -1.0246  -0.9327  -0.9236
    -0.8912  -0.8086  -0.8029  -0.7998  -0.7024  -0.6896  -0.3837  -0.3066
     0.0717   0.0826   0.1673   0.2052   0.2334   0.3140   0.3252   0.3710
     0.4225   0.4423   0.4830   0.5481   0.5847   0.6201   0.6306   0.6463
     0.6599   0.7049   0.7249   0.7517   0.7872   0.8072   0.8245   0.8358
     0.8654   0.8764   0.8904   0.9204   0.9358   0.9571   0.9760   0.9943
     1.0100   1.0156   1.0375   1.0607   1.0672   1.0830   1.1037   1.1594
     1.1615   1.1807   1.1839   1.2007   1.2038   1.2786   1.3111   1.3619
     1.4074   1.4248   1.4256   1.4563   1.4845   1.5626   1.5662   1.6105
     1.7125   1.7527   1.8053   2.0157

          k = 0.1241-0.1255-0.1264 (310202 PWs)   bands (ev):

   -18.2055 -18.1572 -17.7956 -17.7909 -17.7862 -17.7835 -17.7652 -17.7607
   -15.9848 -15.9433 -14.4015 -14.3924 -14.3898 -14.3879 -14.3859 -14.3825
   -14.3804 -14.3777 -14.3761 -14.3717 -14.3696 -14.3674 -14.3577 -14.3566
   -14.3540 -14.3519 -14.3507 -14.3500 -14.3496 -14.3449 -14.3446 -14.3442
   -14.3432 -14.3418 -14.3412 -14.3404 -14.3399 -14.3399 -14.3393 -14.3387
   -14.3384 -14.3373 -14.3355 -14.3330 -14.3192 -14.3151 -14.3119 -14.3091
   -14.3074 -14.3050 -10.8280 -10.8256 -10.8197 -10.8170 -10.7587 -10.7566
   -10.0498  -9.9925  -9.7922  -9.6857  -9.6425  -9.5945  -9.5375  -9.4864
    -9.4629  -9.4469  -9.3933  -9.3903  -9.3604  -9.3560  -9.3062  -9.2996
    -9.2675  -9.2577  -9.2291  -9.2219  -9.2046  -9.1571  -9.1407  -9.1024
    -9.0654  -9.0538  -8.0213  -7.9675  -7.3997  -7.3421  -7.3362  -7.3323
    -7.3282  -7.3191  -7.2900  -7.2780  -7.1365  -7.1307  -7.1244  -7.1196
    -7.1056  -7.1032  -6.0458  -5.6378  -5.6358  -5.6095  -5.5795  -5.5174
    -5.2119  -5.1863  -5.1818  -5.1672  -5.1659  -5.1293  -5.1137  -5.1021
    -5.0678  -4.6862  -4.1803  -4.0932  -3.5777  -3.5503  -3.0971  -3.0942
    -3.0866  -3.0801  -3.0274  -3.0208  -3.0104  -3.0037  -2.9937  -2.9766
    -2.9449  -2.9250  -1.1127  -1.0700  -1.0621  -1.0184  -0.9317  -0.9243
    -0.9014  -0.8140  -0.8119  -0.7996  -0.7025  -0.6908  -0.3838  -0.3067
     0.0708   0.0817   0.1685   0.2042   0.2332   0.3136   0.3254   0.3759
     0.4252   0.4447   0.5053   0.5508   0.5790   0.6128   0.6343   0.6466
     0.6640   0.6917   0.7208   0.7547   0.7800   0.8020   0.8069   0.8356
     0.8669   0.8841   0.8950   0.9127   0.9425   0.9472   0.9826   0.9903
     1.0161   1.0377   1.0481   1.0594   1.0626   1.0882   1.0967   1.1625
     1.1665   1.1717   1.1816   1.1951   1.2067   1.2829   1.3095   1.3618
     1.4110   1.4214   1.4289   1.4587   1.4887   1.5599   1.5653   1.6014
     1.7097   1.7649   1.7916   2.0051

          k =-0.1241-0.1255 0.3793 (310175 PWs)   bands (ev):

   -18.2055 -18.1572 -17.7956 -17.7909 -17.7862 -17.7835 -17.7652 -17.7607
   -15.9848 -15.9433 -14.3996 -14.3901 -14.3890 -14.3879 -14.3863 -14.3834
   -14.3818 -14.3783 -14.3763 -14.3717 -14.3696 -14.3674 -14.3586 -14.3566
   -14.3549 -14.3519 -14.3507 -14.3500 -14.3496 -14.3449 -14.3446 -14.3442
   -14.3432 -14.3418 -14.3412 -14.3404 -14.3399 -14.3399 -14.3393 -14.3387
   -14.3384 -14.3373 -14.3355 -14.3330 -14.3192 -14.3151 -14.3119 -14.3091
   -14.3074 -14.3050 -10.8277 -10.8254 -10.8194 -10.8174 -10.7589 -10.7569
   -10.0475  -9.9907  -9.7613  -9.7067  -9.6431  -9.5849  -9.5750  -9.5266
    -9.5095  -9.4806  -9.3676  -9.3557  -9.3101  -9.3050  -9.3035  -9.2803
    -9.2610  -9.2483  -9.2283  -9.2166  -9.1995  -9.1756  -9.1683  -9.1289
    -9.0657  -9.0578  -8.0214  -7.9676  -7.3998  -7.3423  -7.3310  -7.3281
    -7.3245  -7.3189  -7.2961  -7.2825  -7.1356  -7.1295  -7.1239  -7.1179
    -7.1079  -7.1059  -5.9098  -5.7029  -5.6315  -5.6036  -5.5031  -5.4485
    -5.2975  -5.2472  -5.1856  -5.1848  -5.1667  -5.1654  -5.1216  -5.1159
    -5.0545  -4.8579  -4.1805  -4.0934  -3.5774  -3.5501  -3.0929  -3.0914
    -3.0879  -3.0829  -3.0272  -3.0203  -3.0104  -3.0039  -2.9932  -2.9768
    -2.9451  -2.9252  -0.9697  -0.9377  -0.8924  -0.8910  -0.8579  -0.8441
    -0.8093  -0.7554  -0.6184  -0.6144  -0.5462  -0.4908  -0.3842  -0.2841
    -0.0002   0.0386   0.1279   0.1460   0.1841   0.1924   0.2143   0.2506
     0.2755   0.3056   0.3365   0.3522   0.3692   0.4269   0.6211   0.6269
     0.6752   0.6918   0.7212   0.7689   0.7732   0.8043   0.8206   0.8231
     0.8452   0.8530   0.8798   0.8835   0.9380   0.9423   0.9530   0.9705
     1.0441   1.0480   1.0683   1.0721   1.1081   1.1250   1.1341   1.1623
     1.1698   1.1741   1.1995   1.2109   1.2183   1.2468   1.2885   1.2919
     1.3222   1.3279   1.3974   1.4002   1.4773   1.5352   1.5501   1.5852
     1.6289   1.6370   1.6695   1.7270

          k =-0.1241 0.1255-0.3793 (310175 PWs)   bands (ev):

   -18.2055 -18.1572 -17.7956 -17.7909 -17.7862 -17.7835 -17.7652 -17.7607
   -15.9848 -15.9433 -14.3996 -14.3901 -14.3890 -14.3879 -14.3863 -14.3834
   -14.3818 -14.3783 -14.3763 -14.3717 -14.3696 -14.3674 -14.3586 -14.3566
   -14.3549 -14.3519 -14.3507 -14.3500 -14.3496 -14.3449 -14.3446 -14.3442
   -14.3432 -14.3418 -14.3412 -14.3404 -14.3399 -14.3399 -14.3393 -14.3387
   -14.3384 -14.3373 -14.3355 -14.3330 -14.3192 -14.3151 -14.3119 -14.3091
   -14.3074 -14.3050 -10.8278 -10.8255 -10.8195 -10.8174 -10.7588 -10.7568
   -10.0476  -9.9909  -9.7631  -9.7048  -9.6408  -9.5849  -9.5761  -9.5279
    -9.5088  -9.4804  -9.3681  -9.3556  -9.3133  -9.3052  -9.2987  -9.2832
    -9.2642  -9.2492  -9.2253  -9.2169  -9.1885  -9.1797  -9.1719  -9.1296
    -9.0653  -9.0581  -8.0213  -7.9676  -7.3998  -7.3423  -7.3309  -7.3280
    -7.3246  -7.3190  -7.2961  -7.2825  -7.1357  -7.1297  -7.1237  -7.1179
    -7.1078  -7.1060  -5.9086  -5.7016  -5.6313  -5.6034  -5.5067  -5.4481
    -5.3035  -5.2491  -5.1855  -5.1842  -5.1665  -5.1641  -5.1190  -5.1145
    -5.0531  -4.8568  -4.1804  -4.0934  -3.5774  -3.5500  -3.0924  -3.0916
    -3.0882  -3.0833  -3.0273  -3.0203  -3.0104  -3.0037  -2.9935  -2.9766
    -2.9451  -2.9251  -1.0344  -0.9770  -0.9278  -0.8702  -0.8288  -0.8104
    -0.7602  -0.7425  -0.5991  -0.5951  -0.5450  -0.4862  -0.3887  -0.2837
    -0.0049   0.0388   0.1195   0.1384   0.1833   0.1871   0.2110   0.2501
     0.2808   0.3088   0.3255   0.3550   0.3586   0.4061   0.6112   0.6186
     0.6799   0.7056   0.7083   0.7544   0.7801   0.8040   0.8102   0.8174
     0.8307   0.8434   0.8673   0.9016   0.9522   0.9589   0.9869   1.0021
     1.0264   1.0498   1.0533   1.0794   1.0864   1.1220   1.1396   1.1469
     1.1621   1.1834   1.2005   1.2053   1.2138   1.2467   1.2990   1.3039
     1.3191   1.3319   1.3821   1.3960   1.4603   1.5133   1.5249   1.5495
     1.6053   1.6220   1.7811   1.8318

          k = 0.1241-0.1255-0.3793 (310175 PWs)   bands (ev):

   -18.2055 -18.1572 -17.7956 -17.7909 -17.7862 -17.7835 -17.7652 -17.7607
   -15.9848 -15.9433 -14.3996 -14.3901 -14.3890 -14.3879 -14.3863 -14.3834
   -14.3818 -14.3783 -14.3763 -14.3717 -14.3696 -14.3674 -14.3586 -14.3566
   -14.3549 -14.3519 -14.3507 -14.3500 -14.3496 -14.3449 -14.3446 -14.3442
   -14.3432 -14.3418 -14.3412 -14.3404 -14.3399 -14.3399 -14.3393 -14.3387
   -14.3384 -14.3373 -14.3355 -14.3330 -14.3192 -14.3151 -14.3119 -14.3091
   -14.3074 -14.3050 -10.8278 -10.8255 -10.8194 -10.8175 -10.7588 -10.7568
   -10.0476  -9.9909  -9.7628  -9.7046  -9.6435  -9.5817  -9.5740  -9.5320
    -9.5069  -9.4833  -9.3593  -9.3572  -9.3154  -9.3094  -9.2993  -9.2839
    -9.2627  -9.2464  -9.2280  -9.2136  -9.1986  -9.1766  -9.1665  -9.1307
    -9.0644  -9.0586  -8.0213  -7.9676  -7.3998  -7.3423  -7.3310  -7.3280
    -7.3245  -7.3189  -7.2960  -7.2826  -7.1357  -7.1295  -7.1241  -7.1177
    -7.1081  -7.1057  -5.9092  -5.7004  -5.6314  -5.6033  -5.5072  -5.4489
    -5.3034  -5.2477  -5.1858  -5.1825  -5.1664  -5.1645  -5.1206  -5.1146
    -5.0526  -4.8575  -4.1805  -4.0934  -3.5774  -3.5500  -3.0926  -3.0919
    -3.0880  -3.0830  -3.0270  -3.0203  -3.0104  -3.0039  -2.9932  -2.9769
    -2.9451  -2.9251  -1.0337  -0.9780  -0.9152  -0.8646  -0.8132  -0.8072
    -0.7693  -0.7444  -0.6227  -0.6057  -0.5541  -0.4888  -0.3901  -0.2854
     0.0030   0.0425   0.1315   0.1327   0.1930   0.1951   0.2132   0.2574
     0.2758   0.3010   0.3307   0.3474   0.3611   0.4132   0.6124   0.6188
     0.6703   0.6992   0.7134   0.7408   0.7762   0.7895   0.8134   0.8308
     0.8384   0.8463   0.8707   0.8889   0.9468   0.9783   0.9837   0.9982
     1.0390   1.0531   1.0600   1.0619   1.0837   1.1158   1.1284   1.1634
     1.1808   1.1835   1.1996   1.2048   1.2118   1.2477   1.2962   1.3012
     1.3210   1.3241   1.3861   1.3996   1.4581   1.5211   1.5266   1.5348
     1.5925   1.6309   1.7786   1.8281

          k =-0.1241-0.3765 0.1264 (310244 PWs)   bands (ev):

   -18.2055 -18.1572 -17.7956 -17.7909 -17.7862 -17.7835 -17.7652 -17.7607
   -15.9848 -15.9433 -14.4012 -14.3918 -14.3893 -14.3882 -14.3856 -14.3819
   -14.3801 -14.3778 -14.3770 -14.3715 -14.3703 -14.3669 -14.3580 -14.3566
   -14.3544 -14.3519 -14.3507 -14.3500 -14.3496 -14.3450 -14.3449 -14.3443
   -14.3432 -14.3418 -14.3412 -14.3407 -14.3400 -14.3399 -14.3393 -14.3387
   -14.3384 -14.3372 -14.3355 -14.3330 -14.3192 -14.3151 -14.3119 -14.3091
   -14.3074 -14.3050 -10.8269 -10.8244 -10.8202 -10.8185 -10.7590 -10.7569
   -10.0481  -9.9918  -9.7576  -9.7017  -9.6538  -9.5917  -9.5695  -9.5094
    -9.4676  -9.4607  -9.4028  -9.3888  -9.3615  -9.3548  -9.2841  -9.2665
    -9.2455  -9.2396  -9.2231  -9.2168  -9.1814  -9.1656  -9.1592  -9.1067
    -9.0783  -9.0708  -8.0211  -7.9673  -7.3997  -7.3420  -7.3362  -7.3322
    -7.3282  -7.3191  -7.2903  -7.2782  -7.1352  -7.1320  -7.1230  -7.1208
    -7.1053  -7.1035  -5.9235  -5.7330  -5.6348  -5.6066  -5.5154  -5.4106
    -5.3453  -5.2281  -5.1832  -5.1773  -5.1669  -5.1651  -5.1175  -5.1142
    -5.0019  -4.8288  -4.1803  -4.0933  -3.5777  -3.5504  -3.0962  -3.0943
    -3.0849  -3.0816  -3.0276  -3.0146  -3.0102  -3.0009  -2.9965  -2.9827
    -2.9451  -2.9253  -1.0873  -1.0556  -1.0276  -0.9762  -0.9078  -0.9041
    -0.7853  -0.7726  -0.5387  -0.5320  -0.4427  -0.4103  -0.3355  -0.3170
     0.0321   0.0589   0.1046   0.1430   0.2038   0.2063   0.2378   0.2422
     0.2693   0.2940   0.3535   0.3875   0.4239   0.5242   0.5822   0.5937
     0.6155   0.6436   0.7247   0.7673   0.7739   0.8056   0.8066   0.8293
     0.8463   0.8863   0.8876   0.8994   0.9102   0.9208   0.9842   1.0115
     1.0124   1.0368   1.0506   1.0740   1.0853   1.1075   1.1105   1.1234
     1.1416   1.2301   1.2363   1.2551   1.2930   1.3051   1.3237   1.3286
     1.3387   1.3962   1.4081   1.4334   1.4576   1.4727   1.5295   1.5548
     1.5719   1.6016   1.7854   1.8031

          k =-0.1241 0.3765-0.1264 (310244 PWs)   bands (ev):

   -18.2055 -18.1572 -17.7956 -17.7909 -17.7862 -17.7835 -17.7652 -17.7607
   -15.9848 -15.9433 -14.4012 -14.3918 -14.3893 -14.3882 -14.3856 -14.3819
   -14.3801 -14.3778 -14.3770 -14.3715 -14.3703 -14.3669 -14.3580 -14.3566
   -14.3544 -14.3519 -14.3507 -14.3500 -14.3496 -14.3450 -14.3449 -14.3443
   -14.3432 -14.3418 -14.3412 -14.3407 -14.3400 -14.3399 -14.3393 -14.3387
   -14.3384 -14.3372 -14.3355 -14.3330 -14.3192 -14.3151 -14.3119 -14.3091
   -14.3074 -14.3050 -10.8270 -10.8246 -10.8204 -10.8183 -10.7588 -10.7568
   -10.0483  -9.9919  -9.7600  -9.7015  -9.6455  -9.5959  -9.5681  -9.5120
    -9.4679  -9.4628  -9.4041  -9.3922  -9.3617  -9.3474  -9.2801  -9.2719
    -9.2536  -9.2386  -9.2210  -9.2053  -9.1828  -9.1727  -9.1524  -9.1117
    -9.0757  -9.0725  -8.0211  -7.9673  -7.3997  -7.3420  -7.3362  -7.3321
    -7.3280  -7.3194  -7.2900  -7.2784  -7.1351  -7.1322  -7.1230  -7.1207
    -7.1052  -7.1036  -5.9208  -5.7365  -5.6349  -5.6067  -5.5184  -5.4040
    -5.3417  -5.2426  -5.1838  -5.1787  -5.1667  -5.1621  -5.1157  -5.1120
    -5.0002  -4.8270  -4.1803  -4.0932  -3.5777  -3.5504  -3.0967  -3.0940
    -3.0856  -3.0812  -3.0277  -3.0145  -3.0105  -3.0013  -2.9957  -2.9828
    -2.9451  -2.9253  -1.0980  -1.0508  -1.0312  -0.9917  -0.9589  -0.8653
    -0.8422  -0.7465  -0.5071  -0.4636  -0.4154  -0.3634  -0.3264  -0.3012
    -0.0183   0.0199   0.1104   0.1264   0.1672   0.1991   0.2267   0.2367
     0.2744   0.3033   0.3443   0.3540   0.4108   0.5032   0.5487   0.6138
     0.6416   0.6518   0.7268   0.7850   0.8044   0.8105   0.8321   0.8374
     0.8566   0.8602   0.8843   0.9094   0.9183   0.9299   0.9765   0.9965
     1.0133   1.0321   1.0401   1.0467   1.0695   1.1044   1.1137   1.1424
     1.1682   1.2198   1.2434   1.2689   1.2872   1.2917   1.3143   1.3246
     1.3484   1.3801   1.4069   1.4227   1.4466   1.4952   1.4978   1.5460
     1.5527   1.6720   1.7722   1.8754

          k = 0.1241-0.3765-0.1264 (310244 PWs)   bands (ev):

   -18.2055 -18.1572 -17.7956 -17.7909 -17.7862 -17.7835 -17.7652 -17.7607
   -15.9848 -15.9433 -14.4012 -14.3918 -14.3893 -14.3882 -14.3856 -14.3819
   -14.3801 -14.3778 -14.3770 -14.3715 -14.3703 -14.3669 -14.3580 -14.3566
   -14.3544 -14.3519 -14.3507 -14.3500 -14.3496 -14.3450 -14.3449 -14.3443
   -14.3432 -14.3418 -14.3412 -14.3407 -14.3400 -14.3399 -14.3393 -14.3387
   -14.3384 -14.3372 -14.3355 -14.3330 -14.3192 -14.3151 -14.3119 -14.3091
   -14.3074 -14.3050 -10.8270 -10.8245 -10.8204 -10.8183 -10.7589 -10.7568
   -10.0483  -9.9919  -9.7605  -9.6991  -9.6475  -9.5966  -9.5664  -9.5140
    -9.4688  -9.4631  -9.3967  -9.3928  -9.3669  -9.3450  -9.2814  -9.2714
    -9.2564  -9.2374  -9.2205  -9.2062  -9.1845  -9.1695  -9.1520  -9.1127
    -9.0759  -9.0719  -8.0211  -7.9673  -7.3997  -7.3420  -7.3362  -7.3322
    -7.3279  -7.3193  -7.2901  -7.2784  -7.1351  -7.1321  -7.1235  -7.1204
    -7.1052  -7.1036  -5.9214  -5.7355  -5.6351  -5.6068  -5.5185  -5.4042
    -5.3411  -5.2414  -5.1840  -5.1789  -5.1667  -5.1631  -5.1157  -5.1121
    -4.9994  -4.8278  -4.1803  -4.0932  -3.5777  -3.5504  -3.0969  -3.0940
    -3.0855  -3.0811  -3.0276  -3.0145  -3.0107  -3.0005  -2.9964  -2.9830
    -2.9451  -2.9252  -1.0885  -1.0461  -1.0284  -0.9969  -0.9602  -0.8722
    -0.8408  -0.7477  -0.5138  -0.4698  -0.4165  -0.3650  -0.3282  -0.3043
    -0.0130   0.0251   0.1036   0.1279   0.1742   0.1997   0.2260   0.2420
     0.2722   0.3047   0.3454   0.3644   0.4095   0.5010   0.5540   0.6136
     0.6376   0.6477   0.7434   0.7775   0.7951   0.8012   0.8310   0.8318
     0.8528   0.8602   0.8819   0.9129   0.9178   0.9394   0.9894   1.0030
     1.0059   1.0199   1.0404   1.0553   1.0673   1.1077   1.1114   1.1436
     1.1777   1.2231   1.2476   1.2726   1.2801   1.2836   1.3096   1.3217
     1.3600   1.3782   1.4092   1.4196   1.4531   1.4887   1.5001   1.5422
     1.5512   1.6743   1.7691   1.8629

          k =-0.1241-0.3765 0.3793 (310130 PWs)   bands (ev):

   -18.2055 -18.1572 -17.7956 -17.7909 -17.7862 -17.7835 -17.7652 -17.7607
   -15.9848 -15.9433 -14.3992 -14.3892 -14.3886 -14.3880 -14.3865 -14.3828
   -14.3818 -14.3778 -14.3774 -14.3716 -14.3702 -14.3669 -14.3589 -14.3566
   -14.3552 -14.3519 -14.3507 -14.3500 -14.3496 -14.3450 -14.3448 -14.3443
   -14.3432 -14.3418 -14.3412 -14.3407 -14.3400 -14.3399 -14.3393 -14.3387
   -14.3384 -14.3372 -14.3355 -14.3330 -14.3192 -14.3151 -14.3119 -14.3091
   -14.3074 -14.3050 -10.8267 -10.8243 -10.8203 -10.8185 -10.7591 -10.7570
   -10.0469  -9.9897  -9.7281  -9.6931  -9.6457  -9.5994  -9.5943  -9.5619
    -9.5399  -9.5080  -9.3420  -9.3254  -9.3044  -9.2999  -9.2929  -9.2625
    -9.2511  -9.2458  -9.2288  -9.2249  -9.1964  -9.1863  -9.1470  -9.1219
    -9.0836  -9.0783  -8.0212  -7.9674  -7.3997  -7.3422  -7.3309  -7.3281
    -7.3245  -7.3190  -7.2962  -7.2826  -7.1348  -7.1304  -7.1236  -7.1180
    -7.1077  -7.1061  -5.7910  -5.6462  -5.6159  -5.6030  -5.5564  -5.3909
    -5.3879  -5.2387  -5.2049  -5.1873  -5.1663  -5.1570  -5.1502  -5.1188
    -5.1022  -4.9912  -4.1805  -4.0934  -3.5775  -3.5501  -3.0929  -3.0914
    -3.0875  -3.0834  -3.0275  -3.0139  -3.0103  -2.9995  -2.9971  -2.9829
    -2.9452  -2.9253  -0.8906  -0.8887  -0.8329  -0.8265  -0.7233  -0.6935
    -0.6220  -0.5717  -0.4837  -0.4801  -0.4496  -0.4264  -0.3237  -0.2774
    -0.0646   0.0008   0.0366   0.0737   0.0985   0.1289   0.1605   0.1860
     0.2528   0.2610   0.2834   0.3398   0.4158   0.4587   0.5062   0.5199
     0.5618   0.5709   0.6279   0.6379   0.6483   0.6798   0.7428   0.7559
     0.7885   0.8035   0.8247   0.8743   0.9043   0.9500   0.9766   1.0261
     1.0581   1.0625   1.0905   1.0937   1.1287   1.1319   1.1494   1.1657
     1.1805   1.1924   1.2202   1.2448   1.2659   1.2748   1.2921   1.3034
     1.3256   1.3454   1.3656   1.3763   1.4212   1.4261   1.4665   1.5062
     1.5520   1.5654   1.6100   1.6146

          k =-0.1241 0.3765-0.3793 (310130 PWs)   bands (ev):

   -18.2055 -18.1572 -17.7956 -17.7909 -17.7862 -17.7835 -17.7652 -17.7607
   -15.9848 -15.9433 -14.3992 -14.3892 -14.3886 -14.3880 -14.3865 -14.3828
   -14.3818 -14.3778 -14.3774 -14.3716 -14.3703 -14.3669 -14.3589 -14.3566
   -14.3552 -14.3519 -14.3507 -14.3500 -14.3496 -14.3450 -14.3448 -14.3443
   -14.3432 -14.3418 -14.3412 -14.3407 -14.3400 -14.3399 -14.3393 -14.3387
   -14.3384 -14.3372 -14.3355 -14.3330 -14.3192 -14.3151 -14.3119 -14.3091
   -14.3074 -14.3050 -10.8268 -10.8244 -10.8203 -10.8185 -10.7589 -10.7569
   -10.0470  -9.9899  -9.7304  -9.6934  -9.6391  -9.5997  -9.5947  -9.5645
    -9.5397  -9.5085  -9.3404  -9.3299  -9.3032  -9.3009  -9.2854  -9.2741
    -9.2529  -9.2409  -9.2260  -9.2245  -9.1945  -9.1874  -9.1458  -9.1242
    -9.0828  -9.0788  -8.0211  -7.9674  -7.3998  -7.3422  -7.3309  -7.3280
    -7.3247  -7.3190  -7.2961  -7.2826  -7.1349  -7.1305  -7.1234  -7.1179
    -7.1080  -7.1059  -5.7876  -5.6468  -5.6162  -5.6037  -5.5542  -5.3990
    -5.3920  -5.2340  -5.2123  -5.1841  -5.1660  -5.1579  -5.1449  -5.1179
    -5.1001  -4.9906  -4.1804  -4.0934  -3.5775  -3.5501  -3.0924  -3.0916
    -3.0879  -3.0837  -3.0275  -3.0138  -3.0103  -3.0006  -2.9961  -2.9828
    -2.9452  -2.9253  -0.9591  -0.9136  -0.8473  -0.7978  -0.7108  -0.6918
    -0.5931  -0.5647  -0.4556  -0.4513  -0.4002  -0.3859  -0.3207  -0.2705
    -0.0816  -0.0335   0.0191   0.0448   0.0699   0.1161   0.1550   0.2007
     0.2276   0.2734   0.3128   0.3242   0.3987   0.4148   0.5107   0.5319
     0.5707   0.5749   0.6096   0.6293   0.6404   0.6870   0.7406   0.7438
     0.7897   0.8010   0.8538   0.8589   0.9592   0.9678   0.9853   0.9960
     1.0523   1.0614   1.0980   1.1018   1.1300   1.1349   1.1464   1.1521
     1.1801   1.1918   1.2220   1.2478   1.2528   1.2854   1.2923   1.3015
     1.3235   1.3371   1.3705   1.3755   1.4112   1.4146   1.4510   1.4601
     1.5301   1.5564   1.6809   1.7093

          k = 0.1241-0.3765-0.3793 (310130 PWs)   bands (ev):

   -18.2055 -18.1572 -17.7956 -17.7909 -17.7862 -17.7835 -17.7652 -17.7607
   -15.9848 -15.9433 -14.3992 -14.3892 -14.3885 -14.3880 -14.3865 -14.3828
   -14.3818 -14.3778 -14.3774 -14.3716 -14.3703 -14.3669 -14.3589 -14.3566
   -14.3552 -14.3519 -14.3507 -14.3500 -14.3496 -14.3450 -14.3448 -14.3443
   -14.3432 -14.3418 -14.3412 -14.3407 -14.3400 -14.3399 -14.3393 -14.3387
   -14.3384 -14.3372 -14.3355 -14.3330 -14.3192 -14.3151 -14.3119 -14.3091
   -14.3074 -14.3050 -10.8268 -10.8243 -10.8203 -10.8185 -10.7589 -10.7569
   -10.0470  -9.9899  -9.7325  -9.6872  -9.6420  -9.6034  -9.5980  -9.5577
    -9.5371  -9.5130  -9.3325  -9.3282  -9.3081  -9.3054  -9.2834  -9.2760
    -9.2550  -9.2409  -9.2269  -9.2190  -9.2016  -9.1820  -9.1445  -9.1258
    -9.0831  -9.0780  -8.0211  -7.9674  -7.3998  -7.3422  -7.3310  -7.3281
    -7.3245  -7.3190  -7.2962  -7.2827  -7.1349  -7.1303  -7.1238  -7.1178
    -7.1080  -7.1059  -5.7897  -5.6433  -5.6163  -5.5999  -5.5596  -5.3983
    -5.3933  -5.2311  -5.2119  -5.1850  -5.1655  -5.1607  -5.1447  -5.1177
    -5.0981  -4.9923  -4.1805  -4.0934  -3.5775  -3.5501  -3.0927  -3.0918
    -3.0876  -3.0834  -3.0274  -3.0138  -3.0104  -2.9996  -2.9970  -2.9830
    -2.9452  -2.9252  -0.9576  -0.9077  -0.8440  -0.7990  -0.6885  -0.6755
    -0.6122  -0.5667  -0.4734  -0.4652  -0.4130  -0.4068  -0.3294  -0.2866
    -0.0527  -0.0046   0.0347   0.0530   0.0771   0.1248   0.1537   0.1735
     0.2395   0.2649   0.3109   0.3265   0.3925   0.4268   0.5170   0.5292
     0.5607   0.5805   0.6085   0.6220   0.6526   0.6694   0.7242   0.7618
     0.7919   0.7991   0.8507   0.8558   0.9584   0.9738   0.9954   0.9985
     1.0516   1.0551   1.0807   1.1100   1.1137   1.1254   1.1567   1.1714
     1.1951   1.2029   1.2207   1.2445   1.2505   1.2651   1.2993   1.3042
     1.3338   1.3369   1.3416   1.3975   1.4042   1.4065   1.4475   1.4751
     1.5259   1.5523   1.6835   1.7008

          k =-0.3723-0.1255 0.1264 (310103 PWs)   bands (ev):

   -18.2055 -18.1572 -17.7956 -17.7909 -17.7862 -17.7835 -17.7652 -17.7607
   -15.9847 -15.9432 -14.4014 -14.3923 -14.3896 -14.3878 -14.3858 -14.3821
   -14.3802 -14.3769 -14.3758 -14.3723 -14.3697 -14.3682 -14.3579 -14.3566
   -14.3541 -14.3519 -14.3507 -14.3500 -14.3496 -14.3450 -14.3449 -14.3442
   -14.3432 -14.3418 -14.3412 -14.3405 -14.3400 -14.3399 -14.3393 -14.3387
   -14.3384 -14.3373 -14.3355 -14.3330 -14.3192 -14.3151 -14.3119 -14.3091
   -14.3074 -14.3050 -10.8279 -10.8256 -10.8193 -10.8174 -10.7591 -10.7570
   -10.0458  -9.9885  -9.7698  -9.7316  -9.6184  -9.5701  -9.5683  -9.5224
    -9.4596  -9.4487  -9.4000  -9.3877  -9.3721  -9.3679  -9.3121  -9.3023
    -9.2449  -9.2382  -9.2017  -9.1965  -9.1654  -9.1521  -9.1433  -9.1160
    -9.0939  -9.0792  -8.0216  -7.9678  -7.3995  -7.3418  -7.3362  -7.3319
    -7.3286  -7.3193  -7.2901  -7.2781  -7.1359  -7.1303  -7.1244  -7.1200
    -7.1057  -7.1032  -5.9350  -5.7619  -5.6353  -5.6070  -5.4814  -5.4219
    -5.3288  -5.2543  -5.1840  -5.1809  -5.1646  -5.1631  -5.1170  -5.1135
    -4.9696  -4.8135  -4.1805  -4.0935  -3.5778  -3.5504  -3.0937  -3.0917
    -3.0884  -3.0840  -3.0272  -3.0195  -3.0100  -3.0028  -2.9923  -2.9761
    -2.9465  -2.9267  -1.1032  -1.0913  -0.9976  -0.9733  -0.9490  -0.9293
    -0.8398  -0.8292  -0.5198  -0.5000  -0.4655  -0.4332  -0.3027  -0.2649
     0.0570   0.0589   0.0778   0.0921   0.2148   0.2220   0.2567   0.2893
     0.2988   0.3377   0.3876   0.4291   0.4488   0.5128   0.5366   0.5483
     0.5667   0.5998   0.7367   0.7718   0.7803   0.8025   0.8094   0.8251
     0.8285   0.8584   0.8922   0.8948   0.9248   0.9397   0.9706   0.9877
     1.0254   1.0370   1.0580   1.0797   1.0941   1.1089   1.1170   1.1441
     1.1737   1.1964   1.2278   1.2391   1.2791   1.2990   1.3253   1.3364
     1.3478   1.3986   1.4238   1.4292   1.4425   1.4814   1.5393   1.5738
     1.6050   1.6496   1.8006   1.8205

          k =-0.3723 0.1255-0.1264 (310103 PWs)   bands (ev):

   -18.2055 -18.1572 -17.7956 -17.7909 -17.7862 -17.7835 -17.7652 -17.7607
   -15.9847 -15.9432 -14.4014 -14.3923 -14.3896 -14.3878 -14.3858 -14.3821
   -14.3802 -14.3769 -14.3758 -14.3723 -14.3697 -14.3682 -14.3579 -14.3566
   -14.3541 -14.3519 -14.3507 -14.3500 -14.3496 -14.3450 -14.3449 -14.3442
   -14.3432 -14.3418 -14.3412 -14.3405 -14.3400 -14.3399 -14.3393 -14.3387
   -14.3384 -14.3373 -14.3355 -14.3330 -14.3192 -14.3151 -14.3119 -14.3091
   -14.3074 -14.3050 -10.8280 -10.8257 -10.8195 -10.8172 -10.7590 -10.7569
   -10.0460  -9.9887  -9.7735  -9.7272  -9.6120  -9.5752  -9.5679  -9.5242
    -9.4603  -9.4509  -9.3965  -9.3937  -9.3777  -9.3590  -9.3098  -9.3014
    -9.2547  -9.2337  -9.1969  -9.1901  -9.1723  -9.1465  -9.1428  -9.1256
    -9.0884  -9.0819  -8.0216  -7.9678  -7.3995  -7.3418  -7.3362  -7.3318
    -7.3284  -7.3196  -7.2899  -7.2783  -7.1359  -7.1304  -7.1244  -7.1199
    -7.1054  -7.1035  -5.9324  -5.7653  -5.6355  -5.6072  -5.4836  -5.4157
    -5.3259  -5.2655  -5.1844  -5.1831  -5.1654  -5.1595  -5.1157  -5.1121
    -4.9684  -4.8116  -4.1805  -4.0935  -3.5778  -3.5504  -3.0933  -3.0924
    -3.0890  -3.0835  -3.0273  -3.0196  -3.0102  -3.0023  -2.9926  -2.9760
    -2.9465  -2.9266  -1.1139  -1.0820  -1.0219  -0.9980  -0.9447  -0.9254
    -0.8794  -0.8103  -0.4621  -0.4593  -0.4266  -0.4166  -0.2855  -0.2396
     0.0103   0.0190   0.0711   0.0906   0.1842   0.1942   0.2684   0.2778
     0.3054   0.3123   0.3630   0.4082   0.4311   0.4955   0.5387   0.5758
     0.5827   0.5862   0.7836   0.7881   0.7938   0.8173   0.8243   0.8299
     0.8431   0.8487   0.8803   0.9162   0.9226   0.9350   0.9564   0.9890
     0.9991   1.0216   1.0475   1.0748   1.0867   1.1147   1.1266   1.1457
     1.1825   1.2111   1.2240   1.2317   1.2754   1.2997   1.3068   1.3252
     1.3804   1.3950   1.4033   1.4130   1.4556   1.4853   1.5224   1.5650
     1.5937   1.6980   1.7957   1.8857

          k = 0.3723-0.1255-0.1264 (310103 PWs)   bands (ev):

   -18.2055 -18.1572 -17.7956 -17.7909 -17.7862 -17.7835 -17.7652 -17.7607
   -15.9847 -15.9432 -14.4014 -14.3923 -14.3896 -14.3878 -14.3858 -14.3821
   -14.3802 -14.3769 -14.3758 -14.3723 -14.3697 -14.3682 -14.3579 -14.3566
   -14.3541 -14.3519 -14.3507 -14.3500 -14.3496 -14.3450 -14.3449 -14.3442
   -14.3432 -14.3418 -14.3412 -14.3405 -14.3400 -14.3399 -14.3393 -14.3387
   -14.3384 -14.3373 -14.3355 -14.3330 -14.3192 -14.3151 -14.3119 -14.3091
   -14.3074 -14.3050 -10.8280 -10.8256 -10.8194 -10.8173 -10.7590 -10.7569
   -10.0460  -9.9886  -9.7725  -9.7288  -9.6131  -9.5733  -9.5665  -9.5234
    -9.4630  -9.4523  -9.4038  -9.3915  -9.3674  -9.3576  -9.3136  -9.3035
    -9.2543  -9.2337  -9.1970  -9.1911  -9.1691  -9.1474  -9.1441  -9.1255
    -9.0875  -9.0822  -8.0216  -7.9678  -7.3995  -7.3418  -7.3361  -7.3319
    -7.3283  -7.3195  -7.2900  -7.2783  -7.1359  -7.1303  -7.1247  -7.1198
    -7.1053  -7.1035  -5.9326  -5.7655  -5.6353  -5.6070  -5.4840  -5.4156
    -5.3247  -5.2659  -5.1843  -5.1827  -5.1652  -5.1596  -5.1157  -5.1122
    -4.9690  -4.8119  -4.1805  -4.0935  -3.5778  -3.5504  -3.0935  -3.0926
    -3.0888  -3.0832  -3.0271  -3.0195  -3.0100  -3.0027  -2.9924  -2.9762
    -2.9464  -2.9266  -1.1039  -1.0776  -1.0260  -0.9912  -0.9474  -0.9315
    -0.8852  -0.8111  -0.4674  -0.4645  -0.4298  -0.4180  -0.2844  -0.2397
     0.0139   0.0214   0.0697   0.0891   0.1889   0.1903   0.2754   0.2804
     0.3103   0.3141   0.3587   0.4170   0.4317   0.4871   0.5347   0.5782
     0.5814   0.5937   0.7738   0.7794   0.7896   0.8116   0.8161   0.8355
     0.8420   0.8563   0.8746   0.9162   0.9335   0.9434   0.9600   0.9960
     1.0104   1.0139   1.0553   1.0810   1.0825   1.1037   1.1271   1.1436
     1.1787   1.2080   1.2296   1.2343   1.2760   1.3025   1.3136   1.3392
     1.3771   1.3834   1.3878   1.4208   1.4556   1.4862   1.5200   1.5572
     1.5895   1.7098   1.7855   1.8787

          k =-0.3723-0.1255 0.3793 (310171 PWs)   bands (ev):

   -18.2055 -18.1572 -17.7956 -17.7909 -17.7862 -17.7835 -17.7652 -17.7607
   -15.9847 -15.9432 -14.3996 -14.3900 -14.3888 -14.3874 -14.3865 -14.3827
   -14.3820 -14.3774 -14.3759 -14.3723 -14.3698 -14.3682 -14.3588 -14.3566
   -14.3550 -14.3519 -14.3507 -14.3500 -14.3496 -14.3450 -14.3449 -14.3442
   -14.3432 -14.3418 -14.3411 -14.3406 -14.3400 -14.3398 -14.3393 -14.3387
   -14.3384 -14.3373 -14.3355 -14.3330 -14.3192 -14.3151 -14.3119 -14.3091
   -14.3074 -14.3050 -10.8278 -10.8255 -10.8193 -10.8174 -10.7592 -10.7571
   -10.0449  -9.9869  -9.7360  -9.7042  -9.6628  -9.6182  -9.5691  -9.5448
    -9.5052  -9.4926  -9.3649  -9.3594  -9.3174  -9.3100  -9.2988  -9.2866
    -9.2358  -9.2261  -9.2165  -9.2103  -9.1828  -9.1620  -9.1516  -9.1342
    -9.0917  -9.0846  -8.0217  -7.9679  -7.3995  -7.3419  -7.3311  -7.3281
    -7.3245  -7.3190  -7.2962  -7.2827  -7.1354  -7.1292  -7.1237  -7.1181
    -7.1080  -7.1058  -5.8014  -5.6420  -5.6284  -5.6107  -5.5824  -5.4220
    -5.3550  -5.2289  -5.1865  -5.1765  -5.1650  -5.1627  -5.1339  -5.1178
    -5.0978  -4.9769  -4.1807  -4.0936  -3.5775  -3.5501  -3.0926  -3.0903
    -3.0888  -3.0839  -3.0271  -3.0194  -3.0100  -3.0022  -2.9922  -2.9757
    -2.9468  -2.9268  -0.9663  -0.9639  -0.8908  -0.8860  -0.6655  -0.6570
    -0.5928  -0.5528  -0.4873  -0.4771  -0.4230  -0.4153  -0.3245  -0.3100
    -0.0002   0.0343   0.0753   0.0832   0.1187   0.1246   0.1645   0.1663
     0.2154   0.2285   0.2857   0.2980   0.3951   0.4057   0.4963   0.5103
     0.5882   0.5979   0.6637   0.6697   0.6936   0.7134   0.7519   0.7644
     0.7960   0.8011   0.8318   0.8334   0.8789   0.8856   0.9879   1.0200
     1.0361   1.0682   1.0802   1.0864   1.1107   1.1325   1.1667   1.1851
     1.2031   1.2132   1.2198   1.2250   1.2579   1.2731   1.2957   1.3149
     1.3291   1.3333   1.3757   1.3817   1.4066   1.4113   1.4426   1.4478
     1.5881   1.6148   1.6803   1.6955

          k =-0.3723 0.1255-0.3793 (310171 PWs)   bands (ev):

   -18.2055 -18.1572 -17.7956 -17.7909 -17.7862 -17.7835 -17.7652 -17.7607
   -15.9847 -15.9432 -14.3996 -14.3900 -14.3888 -14.3874 -14.3865 -14.3827
   -14.3820 -14.3774 -14.3759 -14.3723 -14.3698 -14.3682 -14.3588 -14.3566
   -14.3550 -14.3519 -14.3507 -14.3500 -14.3496 -14.3450 -14.3449 -14.3442
   -14.3432 -14.3418 -14.3411 -14.3406 -14.3400 -14.3398 -14.3393 -14.3387
   -14.3384 -14.3373 -14.3355 -14.3330 -14.3192 -14.3151 -14.3119 -14.3091
   -14.3074 -14.3050 -10.8279 -10.8256 -10.8194 -10.8173 -10.7590 -10.7570
   -10.0450  -9.9871  -9.7416  -9.6960  -9.6624  -9.6197  -9.5692  -9.5458
    -9.5055  -9.4919  -9.3648  -9.3597  -9.3177  -9.3113  -9.2946  -9.2910
    -9.2437  -9.2221  -9.2124  -9.2031  -9.1889  -9.1580  -9.1491  -9.1411
    -9.0910  -9.0846  -8.0217  -7.9679  -7.3996  -7.3419  -7.3311  -7.3280
    -7.3246  -7.3191  -7.2962  -7.2827  -7.1355  -7.1294  -7.1235  -7.1181
    -7.1079  -7.1058  -5.7981  -5.6391  -5.6350  -5.6116  -5.5773  -5.4286
    -5.3577  -5.2251  -5.1917  -5.1825  -5.1655  -5.1642  -5.1211  -5.1169
    -5.0958  -4.9768  -4.1806  -4.0936  -3.5775  -3.5501  -3.0919  -3.0908
    -3.0890  -3.0842  -3.0272  -3.0193  -3.0101  -3.0020  -2.9925  -2.9755
    -2.9468  -2.9268  -1.0121  -0.9534  -0.9310  -0.8668  -0.6928  -0.6503
    -0.5970  -0.5180  -0.4684  -0.4156  -0.3806  -0.3650  -0.3112  -0.2994
    -0.0438   0.0054   0.0364   0.0459   0.0896   0.1021   0.1523   0.1904
     0.2242   0.2284   0.3039   0.3065   0.3741   0.3784   0.4915   0.5176
     0.5870   0.6012   0.6445   0.6854   0.6980   0.7192   0.7425   0.7617
     0.7671   0.8034   0.8181   0.8395   0.9402   0.9614   0.9684   0.9796
     1.0379   1.0456   1.0764   1.1005   1.1059   1.1577   1.1674   1.1692
     1.2028   1.2079   1.2235   1.2290   1.2570   1.2645   1.3031   1.3069
     1.3293   1.3401   1.3493   1.3777   1.3969   1.4110   1.4337   1.4386
     1.5867   1.6047   1.7389   1.7515

          k = 0.3723-0.1255-0.3793 (310171 PWs)   bands (ev):

   -18.2055 -18.1572 -17.7956 -17.7909 -17.7862 -17.7835 -17.7652 -17.7607
   -15.9847 -15.9432 -14.3996 -14.3900 -14.3888 -14.3874 -14.3865 -14.3827
   -14.3820 -14.3774 -14.3759 -14.3723 -14.3698 -14.3682 -14.3588 -14.3566
   -14.3550 -14.3519 -14.3507 -14.3500 -14.3496 -14.3450 -14.3449 -14.3442
   -14.3432 -14.3418 -14.3411 -14.3406 -14.3400 -14.3398 -14.3393 -14.3387
   -14.3384 -14.3373 -14.3355 -14.3330 -14.3192 -14.3151 -14.3119 -14.3091
   -14.3074 -14.3050 -10.8279 -10.8255 -10.8193 -10.8174 -10.7590 -10.7570
   -10.0450  -9.9871  -9.7385  -9.7027  -9.6614  -9.6167  -9.5657  -9.5461
    -9.5082  -9.4953  -9.3590  -9.3566  -9.3218  -9.3133  -9.2964  -9.2920
    -9.2375  -9.2257  -9.2140  -9.2080  -9.1788  -9.1608  -9.1518  -9.1399
    -9.0902  -9.0848  -8.0217  -7.9679  -7.3996  -7.3419  -7.3311  -7.3280
    -7.3245  -7.3190  -7.2962  -7.2827  -7.1355  -7.1292  -7.1239  -7.1179
    -7.1080  -7.1058  -5.7988  -5.6429  -5.6311  -5.6104  -5.5778  -5.4285
    -5.3593  -5.2244  -5.1837  -5.1817  -5.1652  -5.1643  -5.1310  -5.1165
    -5.0948  -4.9767  -4.1807  -4.0936  -3.5775  -3.5501  -3.0921  -3.0910
    -3.0889  -3.0838  -3.0271  -3.0193  -3.0099  -3.0024  -2.9923  -2.9758
    -2.9467  -2.9267  -1.0080  -0.9540  -0.9225  -0.8693  -0.6694  -0.6600
    -0.5832  -0.5261  -0.4854  -0.4397  -0.3931  -0.3878  -0.3123  -0.3002
    -0.0146   0.0123   0.0545   0.0638   0.0902   0.0987   0.1689   0.1811
     0.2145   0.2224   0.2962   0.3152   0.3525   0.3941   0.5040   0.5084
     0.5991   0.6002   0.6520   0.6729   0.6836   0.7104   0.7392   0.7559
     0.7679   0.8027   0.8272   0.8466   0.9527   0.9610   0.9671   0.9763
     1.0343   1.0472   1.0880   1.0982   1.1091   1.1372   1.1624   1.1780
     1.2032   1.2061   1.2281   1.2376   1.2611   1.2843   1.2977   1.3051
     1.3217   1.3354   1.3580   1.3666   1.3908   1.3981   1.4312   1.4437
     1.5776   1.6169   1.7294   1.7554

          k =-0.3723-0.3765 0.1264 (310168 PWs)   bands (ev):

   -18.2055 -18.1572 -17.7956 -17.7909 -17.7862 -17.7835 -17.7652 -17.7607
   -15.9847 -15.9432 -14.4011 -14.3917 -14.3893 -14.3880 -14.3856 -14.3815
   -14.3796 -14.3772 -14.3768 -14.3717 -14.3708 -14.3676 -14.3582 -14.3566
   -14.3545 -14.3519 -14.3507 -14.3500 -14.3496 -14.3454 -14.3449 -14.3443
   -14.3432 -14.3418 -14.3412 -14.3409 -14.3400 -14.3399 -14.3393 -14.3387
   -14.3384 -14.3372 -14.3355 -14.3330 -14.3192 -14.3151 -14.3119 -14.3091
[...]
   -14.3431 -14.3426 -14.3424 -14.3423 -14.3231 -14.3160 -14.3158 -14.3133
   -14.3085 -14.3054 -10.8209 -10.8199 -10.7731 -10.7604 -10.7327 -10.7255
    -9.8747  -9.8359  -9.7151  -9.6866  -9.6418  -9.6245  -9.6039  -9.5872
    -9.5370  -9.5270  -9.3546  -9.3479  -9.2986  -9.2902  -9.2869  -9.2777
    -9.2406  -9.2293  -9.2146  -9.2068  -9.1698  -9.1620  -9.1417  -9.1345
    -9.0789  -9.0675  -7.9871  -7.9208  -7.3822  -7.3248  -7.3205  -7.3028
    -7.2889  -7.2736  -7.2151  -7.2098  -7.2042  -7.2000  -7.1796  -7.1521
    -7.0598  -7.0571  -5.6938  -5.5816  -5.5420  -5.5213  -5.4967  -5.4506
    -5.3572  -5.3425  -5.2815  -5.2110  -5.1921  -5.1723  -5.1436  -5.1212
    -5.0985  -5.0881  -4.0781  -4.0721  -3.5473  -3.4895  -3.0812  -3.0797
    -3.0028  -2.9981  -2.9904  -2.9830  -2.9674  -2.9635  -2.9122  -2.9020
    -2.8906  -2.8760  -0.7432  -0.7248  -0.6712  -0.6336  -0.6105  -0.5442
    -0.5028  -0.4634  -0.4263  -0.4144  -0.3489  -0.3338  -0.2740  -0.2443
    -0.0877  -0.0751   0.0016   0.0327   0.0476   0.0571   0.1111   0.1321
     0.1759   0.2017   0.2037   0.2324   0.4489   0.4730   0.5017   0.5062
     0.5394   0.5791   0.5857   0.6220   0.6594   0.6780   0.6940   0.7163
     0.7218   0.7348   0.8056   0.8220   0.8757   0.8996   0.9106   0.9253
     0.9496   0.9815   1.0368   1.0463   1.1277   1.1379   1.1751   1.1908
     1.2025   1.2115   1.2234   1.2422   1.2527   1.2642   1.2833   1.2882
     1.3314   1.3362   1.3574   1.3676   1.3879   1.4007   1.4190   1.4217
     1.4747   1.4839   1.5656   1.5691

          k = 0.3751-0.3758-0.3783 (310163 PWs)   bands (ev):

   -18.1728 -18.1016 -17.8595 -17.8467 -17.8188 -17.8078 -17.7039 -17.6976
   -15.9849 -15.9105 -14.4088 -14.4012 -14.3993 -14.3962 -14.3924 -14.3920
   -14.3871 -14.3861 -14.3827 -14.3814 -14.3799 -14.3780 -14.3643 -14.3622
   -14.3606 -14.3557 -14.3554 -14.3551 -14.3548 -14.3540 -14.3538 -14.3527
   -14.3492 -14.3490 -14.3490 -14.3481 -14.3480 -14.3475 -14.3460 -14.3448
   -14.3431 -14.3426 -14.3424 -14.3423 -14.3231 -14.3160 -14.3158 -14.3133
   -14.3085 -14.3054 -10.8209 -10.8198 -10.7731 -10.7604 -10.7327 -10.7255
    -9.8751  -9.8357  -9.7127  -9.6801  -9.6598  -9.6167  -9.5982  -9.5926
    -9.5344  -9.5297  -9.3496  -9.3411  -9.3087  -9.3024  -9.2792  -9.2728
    -9.2408  -9.2314  -9.2124  -9.2077  -9.1708  -9.1595  -9.1447  -9.1329
    -9.0782  -9.0678  -7.9871  -7.9208  -7.3822  -7.3248  -7.3205  -7.3027
    -7.2889  -7.2736  -7.2149  -7.2102  -7.2038  -7.2002  -7.1796  -7.1521
    -7.0593  -7.0575  -5.6919  -5.5837  -5.5433  -5.5273  -5.4752  -5.4673
    -5.3571  -5.3376  -5.2835  -5.2112  -5.1936  -5.1719  -5.1435  -5.1213
    -5.0985  -5.0872  -4.0781  -4.0721  -3.5473  -3.4895  -3.0811  -3.0798
    -3.0047  -2.9990  -2.9887  -2.9817  -2.9672  -2.9634  -2.9122  -2.9024
    -2.8906  -2.8761  -0.7883  -0.7192  -0.6555  -0.6385  -0.5905  -0.5215
    -0.4781  -0.4749  -0.4335  -0.4173  -0.3355  -0.3306  -0.2580  -0.2434
    -0.1196  -0.0865  -0.0237   0.0219   0.0278   0.0473   0.1162   0.1536
     0.1931   0.1952   0.2185   0.2297   0.4352   0.4572   0.5121   0.5279
     0.5631   0.5728   0.6014   0.6237   0.6548   0.6631   0.6864   0.7036
     0.7162   0.7607   0.7957   0.8190   0.8846   0.8965   0.9173   0.9245
     0.9645   0.9724   1.0162   1.0482   1.1430   1.1566   1.1700   1.1805
     1.1996   1.2024   1.2191   1.2377   1.2515   1.2597   1.2749   1.2924
     1.3334   1.3374   1.3614   1.3693   1.3840   1.3932   1.4144   1.4321
     1.4806   1.4914   1.5634   1.5730

     highest occupied level (ev):     2.0033

!    total energy              =  -16545.15669468 Ry
     Harris-Foulkes estimate   =  -16545.15669469 Ry
     estimated scf accuracy    <       0.00000001 Ry

     total all-electron energy =   -677464.423564 Ry

     The total energy is the sum of the following terms:

     one-electron contribution =    -893.13777941 Ry
     hartree contribution      =     633.22395719 Ry
     xc contribution           =    -765.64714890 Ry
     ewald contribution        =   -1148.83420277 Ry
     DFT-D3 Dispersion         =      -0.61094292 Ry
     one-center paw contrib.   =  -14370.15057786 Ry

     convergence has been achieved in  10 iterations

     Forces acting on atoms (cartesian axes, Ry/au):

     atom    1 type  1   force =    -0.00143364   -0.00171890    0.00207880
     atom    2 type  1   force =    -0.00201617   -0.00178288    0.00250212
     atom    3 type  1   force =     0.00004111   -0.00057755    0.00024478
     atom    4 type  1   force =     0.00008625   -0.00079855    0.00112698
     atom    5 type  1   force =    -0.00065195    0.00002729    0.00179445
     atom    6 type  1   force =    -0.00031194   -0.00063543    0.00087514
     atom    7 type  1   force =    -0.00308613   -0.00134570    0.00166801
     atom    8 type  1   force =    -0.00183611   -0.00232791    0.00128634
     atom    9 type  2   force =     0.00240542    0.00162590    0.00051418
     atom   10 type  2   force =    -0.00003105   -0.00159727   -0.00018445
     atom   11 type  2   force =     0.00103669    0.00205580   -0.00212421
     atom   12 type  2   force =     0.00266510    0.00193350   -0.00000713
     atom   13 type  2   force =    -0.00059082   -0.00038740   -0.00024651
     atom   14 type  2   force =    -0.00129163   -0.00023389   -0.00150535
     atom   15 type  2   force =     0.00160098   -0.00032797    0.00175044
     atom   16 type  2   force =     0.00176554    0.00046551   -0.00082354
     atom   17 type  2   force =    -0.00260039    0.00228002    0.00062495
     atom   18 type  2   force =     0.00043573    0.00037987   -0.00161889
     atom   19 type  2   force =     0.00046700    0.00034006    0.00097448
     atom   20 type  2   force =    -0.00173875    0.00020206   -0.00130052
     atom   21 type  2   force =     0.00090654    0.00052462   -0.00145222
     atom   22 type  2   force =     0.00100634   -0.00031246    0.00017542
     atom   23 type  2   force =    -0.00119598   -0.00014741   -0.00057962
     atom   24 type  2   force =     0.00049177   -0.00055842    0.00175261
     atom   25 type  2   force =     0.00182253    0.00023907   -0.00136140
     atom   26 type  2   force =    -0.00226238    0.00216313   -0.00120905
     atom   27 type  2   force =     0.00260526    0.00205000   -0.00012138
     atom   28 type  2   force =    -0.00059445   -0.00170508   -0.00046692
     atom   29 type  2   force =    -0.00116755    0.00009214   -0.00065084
     atom   30 type  2   force =     0.00237918    0.00176098    0.00043544
     atom   31 type  2   force =     0.00016620   -0.00047060   -0.00033075
     atom   32 type  2   force =     0.00141852    0.00269795   -0.00039781
     atom   33 type  3   force =    -0.00144111   -0.00441901    0.00217233
     atom   34 type  3   force =     0.00108346    0.00373488    0.00181912
     atom   35 type  3   force =     0.00030380    0.00376114    0.00250758
     atom   36 type  3   force =     0.00152013    0.00586506    0.00026325
     atom   37 type  3   force =     0.00080642    0.00590813    0.00052308
     atom   38 type  3   force =     0.00028828    0.00430810    0.00007190
     atom   39 type  3   force =     0.00142923    0.00311311    0.00078909
     atom   40 type  3   force =     0.00108722    0.00210383   -0.00070878
     atom   41 type  4   force =    -0.00060981    0.00797762   -0.00084353
     atom   42 type  4   force =    -0.00070407    0.00540525   -0.00126553
     atom   43 type  4   force =     0.00149946   -0.00057546   -0.00174924
     atom   44 type  4   force =     0.00147318   -0.00114331   -0.00249464
     atom   45 type  4   force =     0.00123811   -0.00532148    0.00060821
     atom   46 type  4   force =     0.00224806   -0.00564234    0.00019988
     atom   47 type  4   force =     0.00228119   -0.00128287    0.00222430
     atom   48 type  4   force =     0.00077623    0.00054693    0.00002693
     atom   49 type  4   force =    -0.00306707    0.00012177    0.00040088
     atom   50 type  4   force =     0.00128798   -0.00185645   -0.00023839
     atom   51 type  5   force =    -0.00009716   -0.00669270   -0.00164840
     atom   52 type  5   force =    -0.00149962    0.00322203   -0.00026410
     atom   53 type  5   force =    -0.00487260   -0.00601226    0.00027718
     atom   54 type  5   force =     0.00370707    0.00706624   -0.00031428
     atom   55 type  5   force =     0.00659150   -0.00635315    0.00061061
     atom   56 type  5   force =    -0.00150296   -0.00238385   -0.00180271
     atom   57 type  5   force =     0.00222027   -0.00147643   -0.00049709
     atom   58 type  5   force =    -0.00261172    0.00091891    0.00212534
     atom   59 type  5   force =    -0.00048667   -0.00200613   -0.00105377
     atom   60 type  5   force =     0.00130099   -0.00365597   -0.00215934
     atom   61 type  5   force =    -0.00181443    0.00494599    0.00250670
     atom   62 type  5   force =    -0.00151356   -0.00272747   -0.00333220
     atom   63 type  5   force =     0.00393238   -0.00257780    0.00122313
     atom   64 type  5   force =    -0.00220881    0.00111332    0.00218286
     atom   65 type  5   force =    -0.00168029   -0.00253589   -0.00014147
     atom   66 type  5   force =     0.00129182   -0.00287333   -0.00306830
     atom   67 type  5   force =    -0.00223327    0.00547068    0.00332673
     atom   68 type  5   force =    -0.00142744    0.00254548    0.00116451
     atom   69 type  5   force =     0.00088120   -0.00101368   -0.00125086
     atom   70 type  5   force =    -0.00316657   -0.00100695   -0.00028564
     atom   71 type  5   force =     0.00270032   -0.00388063   -0.00133460
     atom   72 type  5   force =     0.00120322   -0.00210381    0.00079734
     atom   73 type  5   force =    -0.00312959    0.00517005   -0.00002159
     atom   74 type  5   force =    -0.00115067    0.00321217    0.00165133
     atom   75 type  5   force =     0.00127256   -0.00125953   -0.00093835
     atom   76 type  5   force =    -0.00377281   -0.00107015   -0.00010882
     atom   77 type  5   force =     0.00255286   -0.00379071   -0.00141331
     atom   78 type  5   force =     0.00033354   -0.00204148    0.00061109
     atom   79 type  5   force =    -0.00265958    0.00498847   -0.00016449
     atom   80 type  5   force =    -0.00138877   -0.00142632   -0.00074694
     atom   81 type  5   force =     0.00156711   -0.00108357   -0.00145769
     atom   82 type  5   force =    -0.00041963   -0.00148299    0.00086675
     atom   83 type  5   force =    -0.00071266   -0.00111724   -0.00211838
     atom   84 type  5   force =     0.00013279   -0.00367238   -0.00244839
     atom   85 type  5   force =    -0.00267559    0.00416225    0.00380899
     atom   86 type  5   force =     0.00023892   -0.00162418    0.00018380
     atom   87 type  5   force =     0.00145581   -0.00151361   -0.00166674
     atom   88 type  5   force =    -0.00228084   -0.00055159    0.00168973
     atom   89 type  5   force =     0.00007139   -0.00092476   -0.00203934
     atom   90 type  5   force =     0.00014365   -0.00338300   -0.00263252
     atom   91 type  5   force =    -0.00187915    0.00353138    0.00288191
     atom   92 type  5   force =    -0.00052164   -0.00124356   -0.00002023
     atom   93 type  5   force =    -0.00222206    0.00147587   -0.00010458
     atom   94 type  5   force =    -0.01012366   -0.00252974   -0.00048622
     atom   95 type  5   force =     0.00308720    0.00263571    0.00017375
     atom   96 type  5   force =     0.01137526   -0.00095905   -0.00029138

     Total force =     0.040576     Total SCF correction =     0.000421


     Computing stress (Cartesian axis) and pressure

          total   stress  (Ry/bohr**3)                   (kbar)     P=   -0.54
   0.00000489   0.00000832  -0.00000217          0.72      1.22     -0.32
   0.00000832  -0.00000815   0.00000570          1.22     -1.20      0.84
  -0.00000217   0.00000570  -0.00000775         -0.32      0.84     -1.14


     number of scf cycles    =  22
     number of bfgs steps    =  21

     enthalpy old            =  -16545.1542693853 Ry
     enthalpy new            =  -16545.1566946760 Ry

     CASE: enthalpy_new < enthalpy_old

     new trust radius        =       0.0881458563 bohr
     new conv_thr            =       0.0000000243 Ry

     new unit-cell volume =  13889.94175 a.u.^3 (  2058.27698 Ang^3 )
     density =      4.02724 g/cm^3

CELL_PARAMETERS (alat= 24.15259000)
   0.999668893   0.000000000   0.000000000
   0.000000000   0.997201942   0.000000000
   0.000000000   0.000000000   0.988940137

ATOMIC_POSITIONS (crystal)
Pb       0.009823887   0.000115899  -0.004355441
Pb       0.008821516   0.001228217   0.494770706
Pb       0.004958446   0.501093090  -0.004066472
Pb       0.008782138   0.497517265   0.495994413
Pb       0.509773408  -0.003628553  -0.004620841
Pb       0.503868813   0.001547140   0.495324395
Pb       0.509265341   0.500269988  -0.004463458
Pb       0.510195091   0.500501969   0.496046730
I        0.260114854   0.030801009  -0.014676511
I       -0.003579727   0.249154232  -0.023068845
I        0.010216239  -0.013538504   0.247601760
I        0.258255998   0.037480051   0.502102249
I       -0.002266488   0.247200850   0.522022984
I        0.018309077  -0.034935615   0.747543738
I        0.257306339   0.494439706  -0.006057202
I        0.049008304   0.747392402   0.005689648
I        0.016245944   0.477695115   0.244950714
I        0.261191449   0.491396839   0.481625357
I        0.047166056   0.746796135   0.499021348
I        0.013221844   0.497800467   0.746720555
I        0.761593646  -0.009955264  -0.018939475
I        0.548351635   0.247458736   0.000270591
I        0.512624046  -0.002285506   0.245688588
I        0.758553961  -0.002723136   0.493903926
I        0.547231252   0.247884611   0.506286610
I        0.515343591  -0.021800612   0.745924234
I        0.757479667   0.540484848   0.003210027
I        0.494498678   0.748462187   0.021397266
I        0.517397856   0.465133459   0.247723068
I        0.761220027   0.529544023   0.485315028
I        0.497579458   0.748070690   0.477504801
I        0.509474607   0.485648194   0.747009893
C        0.253830926   0.282850400   0.251226868
C        0.280429296   0.276645886   0.752491224
C        0.282079935   0.783945701   0.251626179
C        0.288081292   0.782092836   0.753961097
C        0.788129454   0.282071196   0.254362781
C        0.782162747   0.283763903   0.751075605
C        0.780776275   0.776801058   0.252724300
C        0.753572068   0.782713426   0.751104259
N        0.161787420   0.236659104   0.251518677
N        0.344640677   0.234080873   0.252223788
N        0.193820129   0.197342122   0.762120498
N        0.201626422   0.698209568   0.261551123
N        0.203112912   0.701876115   0.763332506
N        0.702577069   0.202218023   0.264115164
N        0.702037009   0.197884791   0.761121030
N        0.694856439   0.696497795   0.261718107
N        0.661800817   0.737100962   0.752617526
N        0.844136287   0.734663664   0.751358332
H        0.255170908   0.368697922   0.250230412
H        0.151677453   0.156824520   0.252705728
H        0.098001008   0.285198964   0.249797851
H        0.351699792   0.153918584   0.253580721
H        0.409811549   0.280527218   0.251197084
H        0.172934719   0.167262536   0.689338971
H        0.126869393   0.228227964   0.796741125
H        0.215989312   0.134864034   0.810370319
H        0.293370830   0.295572751   0.669104014
H        0.351636780   0.245286726   0.788511843
H        0.258106674   0.347003513   0.795879785
H        0.184443395   0.665217537   0.189124939
H        0.131735248   0.725565688   0.292871669
H        0.225892577   0.638392586   0.311614761
H        0.291858827   0.805179039   0.168325955
H        0.356056737   0.757288772   0.285631386
H        0.255189684   0.851444525   0.296971783
H        0.153234010   0.702980633   0.698469886
H        0.157450736   0.713985756   0.830924461
H        0.232710509   0.627146676   0.769267650
H        0.316432692   0.783720293   0.672345996
H        0.350815852   0.762524545   0.809453839
H        0.255638390   0.858328758   0.774928612
H        0.654152048   0.201674423   0.198050989
H        0.655445105   0.216098324   0.330449191
H        0.732070493   0.127731169   0.273064205
H        0.815257724   0.284354141   0.172237471
H        0.851672665   0.261529164   0.308654813
H        0.756609223   0.358262351   0.276859567
H        0.685066115   0.163635708   0.689045925
H        0.632214776   0.225143466   0.792488136
H        0.726061268   0.139141962   0.812200434
H        0.790947736   0.304845582   0.667873645
H        0.856855056   0.257461912   0.783883494
H        0.755437747   0.351509997   0.796173012
H        0.677533266   0.663049976   0.189284337
H        0.626478039   0.727813005   0.292696340
H        0.716062522   0.636459028   0.313671927
H        0.791816325   0.797440100   0.169427633
H        0.852969916   0.745324785   0.286737443
H        0.758573591   0.846104106   0.298122288
H        0.754866794   0.868345819   0.749587809
H        0.651185451   0.657557054   0.753867702
H        0.598246074   0.785649315   0.752079120
H        0.852069996   0.654761686   0.753093831
H        0.909196780   0.780838093   0.751424450



     Writing output data file 0.25FA2_vcrelax2.save/
     NEW-OLD atomic charge density approx. for the potential
     extrapolated charge  406.66571, renormalised to  408.00000

     total cpu time spent up to now is   586186.5 secs

     Self-consistent Calculation

     iteration #  1     ecut=   120.00 Ry     beta= 0.70
     Davidson diagonalization with overlap
     ethr =  1.00E-06,  avg # of iterations =  5.3

     total cpu time spent up to now is   591134.9 secs

     total energy              =  -16545.14043565 Ry
     Harris-Foulkes estimate   =  -16547.25863746 Ry
     estimated scf accuracy    <       0.01943648 Ry

     iteration #  2     ecut=   120.00 Ry     beta= 0.70
     Davidson diagonalization with overlap
     ethr =  4.76E-06,  avg # of iterations =  3.0

     total cpu time spent up to now is   594382.2 secs

     total energy              =  -16545.15596419 Ry
     Harris-Foulkes estimate   =  -16545.16735319 Ry
     estimated scf accuracy    <       0.02723888 Ry

     iteration #  3     ecut=   120.00 Ry     beta= 0.70
     Davidson diagonalization with overlap
     ethr =  4.76E-06,  avg # of iterations =  2.0

     total cpu time spent up to now is   596648.5 secs

     total energy              =  -16545.15922541 Ry
     Harris-Foulkes estimate   =  -16545.15926953 Ry
     estimated scf accuracy    <       0.00279463 Ry

     iteration #  4     ecut=   120.00 Ry     beta= 0.70
     Davidson diagonalization with overlap
     ethr =  6.85E-07,  avg # of iterations =  2.8

     total cpu time spent up to now is   598465.9 secs

     total energy              =  -16545.15947449 Ry
     Harris-Foulkes estimate   =  -16545.15944026 Ry
     estimated scf accuracy    <       0.00120163 Ry

     iteration #  5     ecut=   120.00 Ry     beta= 0.70
     Davidson diagonalization with overlap
     ethr =  2.95E-07,  avg # of iterations =  2.2

     total cpu time spent up to now is   600258.7 secs

     total energy              =  -16545.15958223 Ry
     Harris-Foulkes estimate   =  -16545.15956241 Ry
     estimated scf accuracy    <       0.00047041 Ry

     iteration #  6     ecut=   120.00 Ry     beta= 0.70
     Davidson diagonalization with overlap
     ethr =  1.15E-07,  avg # of iterations =  2.4

     total cpu time spent up to now is   602569.1 secs

     total energy              =  -16545.15963756 Ry
     Harris-Foulkes estimate   =  -16545.15964938 Ry
     estimated scf accuracy    <       0.00008114 Ry

     iteration #  7     ecut=   120.00 Ry     beta= 0.70
     Davidson diagonalization with overlap
     ethr =  1.99E-08,  avg # of iterations =  3.0
