
     Program PWSCF v.6.4 starts on  6Jun2020 at 12:52:36 

     This program is part of the open-source Quantum ESPRESSO suite
     for quantum simulation of materials; please cite
         "P. Giannozzi et al., J. Phys.:Condens. Matter 21 395502 (2009);
         "P. Giannozzi et al., J. Phys.:Condens. Matter 29 465901 (2017);
          URL http://www.quantum-espresso.org", 
     in publications or presentations arising from this work. More details at
     http://www.quantum-espresso.org/quote

     Parallel version (MPI), running on    32 processors

     MPI processes distributed on     1 nodes
     K-points division:     npool     =       4
     R & G space division:  proc/nbgrp/npool/nimage =       8
     Waiting for input...
     Reading input from standard input
     Message from routine read_cards :
     DEPRECATED: no units specified in CELL_PARAMETERS card

     Current dimensions of program PWSCF are:
     Max number of different atomic species (ntypx) = 10
     Max number of k-points (npk) =  40000
     Max angular momentum in pseudopotentials (lmaxx) =  3
               file Pb.pbe-dn-kjpaw_psl.1.0.0.UPF: wavefunction(s)  6S 6P 5D renormalized
               file I.pbe-n-kjpaw_psl.1.0.0.UPF: wavefunction(s)  5S renormalized
               file C.pbe-n-kjpaw_psl.1.0.0.UPF: wavefunction(s)  2S 2P renormalized
               file N.pbe-n-kjpaw_psl.1.0.0.UPF: wavefunction(s)  2S renormalized
               file H.pbe-kjpaw_psl.1.0.0.UPF: wavefunction(s)  1S renormalized

     --------------------------------------------
     Parameters for DFT-D3 Dispersion Correction:
     --------------------------------------------
       Reference C6 values for interpolation: 

         atom   Coordination number   C6
         H          0.912             6.05
         H          0.000            15.18
         C          0.000            98.23
         C          0.987            86.49
         C          1.998            58.72
         C          2.999            51.56
         C          3.984            36.41
         N          0.000            50.54
         N          0.994            44.25
         N          2.014            39.35
         N          2.990            31.16
         I          0.000           703.93
         I          0.997           717.00
         Pb         0.000          1477.63
         Pb         0.938          1266.00
         Pb         1.936          1088.91
         Pb         2.908          1048.37
         Pb         3.910           910.57

       Values used:

         atom   Coordination number  R0_AB[au]  C6      C8
         Pb         4.846            4.041    910.57 144158.32
         Pb         4.854            4.041    910.57 144158.31
         Pb         4.879            4.041    910.57 144158.27
         Pb         4.876            4.041    910.57 144158.28
         Pb         4.879            4.041    910.57 144158.27
         Pb         4.876            4.041    910.57 144158.28
         Pb         4.844            4.041    910.57 144158.33
         Pb         4.861            4.041    910.57 144158.30
         I          1.911            3.532    717.00  65855.99
         I          1.950            3.532    717.00  65856.00
         I          1.929            3.532    717.00  65855.99
         I          1.895            3.532    717.00  65855.99
         I          1.992            3.532    717.00  65856.00
         I          1.997            3.532    717.00  65856.00
         I          1.939            3.532    717.00  65855.99
         I          1.945            3.532    717.00  65855.99
         I          2.006            3.532    717.00  65856.00
         I          1.950            3.532    717.00  65855.99
         I          1.928            3.532    717.00  65855.99
         I          2.004            3.532    717.00  65856.00
         I          1.946            3.532    717.00  65855.99
         I          1.926            3.532    717.00  65855.99
         I          2.004            3.532    717.00  65856.00
         I          1.937            3.532    717.00  65855.99
         I          1.953            3.532    717.00  65856.00
         I          2.005            3.532    717.00  65856.00
         I          1.892            3.532    717.00  65855.99
         I          1.979            3.532    717.00  65856.00
         I          1.998            3.532    717.00  65856.00
         I          1.910            3.532    717.00  65855.99
         I          1.959            3.532    717.00  65856.00
         I          1.931            3.532    717.00  65855.99
         C          3.085            2.750     50.97   1474.12
         C          4.032            2.750     36.60   1058.51
         C          4.038            2.750     36.59   1058.27
         C          4.039            2.750     36.59   1058.22
         C          4.037            2.750     36.59   1058.30
         C          4.039            2.750     36.59   1058.23
         C          4.030            2.750     36.60   1058.60
         C          3.086            2.750     50.96   1473.95
         N          3.093            2.478     31.24    689.15
         N          3.095            2.478     31.24    689.13
         N          4.049            2.478     31.16    687.49
         N          4.051            2.478     31.16    687.49
         N          4.056            2.478     31.16    687.49
         N          4.055            2.478     31.16    687.49
         N          4.051            2.478     31.16    687.49
         N          4.048            2.478     31.16    687.49
         N          3.093            2.478     31.24    689.15
         N          3.094            2.478     31.24    689.13
         H          1.024            2.062      6.16     74.48
         H          1.030            2.062      6.16     74.42
         H          1.042            2.062      6.15     74.31
         H          1.026            2.062      6.16     74.46
         H          1.051            2.062      6.14     74.24
         H          1.038            2.062      6.15     74.35
         H          1.015            2.062      6.17     74.56
         H          1.066            2.062      6.13     74.13
         H          1.010            2.062      6.17     74.61
         H          1.006            2.062      6.18     74.66
         H          1.012            2.062      6.17     74.59
         H          1.021            2.062      6.16     74.50
         H          1.025            2.062      6.16     74.46
         H          1.030            2.062      6.16     74.42
         H          1.008            2.062      6.17     74.63
         H          1.014            2.062      6.17     74.57
         H          1.007            2.062      6.17     74.64
         H          1.057            2.062      6.14     74.20
         H          1.064            2.062      6.13     74.15
         H          1.017            2.062      6.17     74.55
         H          1.015            2.062      6.17     74.56
         H          1.015            2.062      6.17     74.56
         H          1.011            2.062      6.17     74.60
         H          1.059            2.062      6.14     74.19
         H          1.065            2.062      6.13     74.14
         H          1.016            2.062      6.17     74.55
         H          1.014            2.062      6.17     74.57
         H          1.015            2.062      6.17     74.56
         H          1.010            2.062      6.17     74.61
         H          1.022            2.062      6.16     74.49
         H          1.024            2.062      6.16     74.47
         H          1.029            2.062      6.16     74.43
         H          1.008            2.062      6.17     74.63
         H          1.014            2.062      6.17     74.57
         H          1.007            2.062      6.17     74.64
         H          1.045            2.062      6.15     74.30
         H          1.014            2.062      6.17     74.57
         H          1.064            2.062      6.13     74.15
         H          1.010            2.062      6.17     74.61
         H          1.005            2.062      6.18     74.66
         H          1.011            2.062      6.17     74.60
         H          1.025            2.062      6.16     74.47
         H          1.029            2.062      6.16     74.42
         H          1.042            2.062      6.15     74.32
         H          1.025            2.062      6.16     74.46
         H          1.052            2.062      6.14     74.24

         Molecular C6 ( Ry / a.u.^6 ) =   1214853.06


     Subspace diagonalization in iterative solution of the eigenvalue problem:
     a serial algorithm will be used


     Parallelization info
     --------------------
     sticks:   dense  smooth     PW     G-vecs:    dense   smooth      PW
     Min        2711    2711    700               302851   302851   39658
     Max        2712    2712    701               302854   302854   39659
     Sum       21695   21695   5605              2422817  2422817  317269



     bravais-lattice index     =            0
     lattice parameter (alat)  =      24.1526  a.u.
     unit-cell volume          =   13643.9842 (a.u.)^3
     number of atoms/cell      =           96
     number of atomic types    =            5
     number of electrons       =       408.00
     number of Kohn-Sham states=          204
     kinetic-energy cutoff     =     120.0000  Ry
     charge density cutoff     =     480.0000  Ry
     convergence threshold     =      1.0E-07
     mixing beta               =       0.7000
     number of iterations used =            8  plain     mixing
     Exchange-correlation      = SLA PW PBX PBC ( 1  4  3  4 0 0)
     nstep                     =          150


     celldm(1)=  24.152590  celldm(2)=   0.000000  celldm(3)=   0.000000
     celldm(4)=   0.000000  celldm(5)=   0.000000  celldm(6)=   0.000000

     crystal axes: (cart. coord. in units of alat)
               a(1) = (   0.988171   0.000000   0.000000 )  
               a(2) = (   0.000000   0.985531   0.000000 )  
               a(3) = (   0.000000   0.000000   0.994370 )  

     reciprocal axes: (cart. coord. in units 2 pi/alat)
               b(1) = (  1.011971  0.000000  0.000000 )  
               b(2) = (  0.000000  1.014682  0.000000 )  
               b(3) = (  0.000000  0.000000  1.005662 )  


     PseudoPot. # 1 for Pb read from file:
     ../../Pseudopotential/Pb.pbe-dn-kjpaw_psl.1.0.0.UPF
     MD5 check sum: 684fc8fbce61a260853528575e4d9ab7
     Pseudo is Projector augmented-wave + core cor, Zval = 14.0
     Generated using "atomic" code by A. Dal Corso v.6.3
     Shape of augmentation charge: PSQ
     Using radial grid of 1281 points,  6 beta functions with: 
                l(1) =   0
                l(2) =   0
                l(3) =   1
                l(4) =   1
                l(5) =   2
                l(6) =   2
     Q(r) pseudized with 0 coefficients 


     PseudoPot. # 2 for I  read from file:
     ../../Pseudopotential/I.pbe-n-kjpaw_psl.1.0.0.UPF
     MD5 check sum: cd3d296c3308a581e1559a0c8a554cb5
     Pseudo is Projector augmented-wave + core cor, Zval =  7.0
     Generated using "atomic" code by A. Dal Corso v.6.3
     Shape of augmentation charge: PSQ
     Using radial grid of 1247 points,  6 beta functions with: 
                l(1) =   0
                l(2) =   0
                l(3) =   1
                l(4) =   1
                l(5) =   2
                l(6) =   2
     Q(r) pseudized with 0 coefficients 


     PseudoPot. # 3 for C  read from file:
     ../../Pseudopotential/C.pbe-n-kjpaw_psl.1.0.0.UPF
     MD5 check sum: 5f16ad9a65e90284d1d834d4ab3b0f7d
     Pseudo is Projector augmented-wave + core cor, Zval =  4.0
     Generated using "atomic" code by A. Dal Corso v.6.3
     Shape of augmentation charge: PSQ
     Using radial grid of 1073 points,  4 beta functions with: 
                l(1) =   0
                l(2) =   0
                l(3) =   1
                l(4) =   1
     Q(r) pseudized with 0 coefficients 


     PseudoPot. # 4 for N  read from file:
     ../../Pseudopotential/N.pbe-n-kjpaw_psl.1.0.0.UPF
     MD5 check sum: 14c48229446f9f2d411169a3abcbc3fa
     Pseudo is Projector augmented-wave + core cor, Zval =  5.0
     Generated using "atomic" code by A. Dal Corso v.6.3
     Shape of augmentation charge: PSQ
     Using radial grid of 1085 points,  4 beta functions with: 
                l(1) =   0
                l(2) =   0
                l(3) =   1
                l(4) =   1
     Q(r) pseudized with 0 coefficients 


     PseudoPot. # 5 for H  read from file:
     ../../Pseudopotential/H.pbe-kjpaw_psl.1.0.0.UPF
     MD5 check sum: d81a744832360e4a8af0b0b5b123bc2a
     Pseudo is Projector augmented-wave, Zval =  1.0
     Generated using "atomic" code by A. Dal Corso v.6.3MaX
     Shape of augmentation charge: PSQ
     Using radial grid of  929 points,  2 beta functions with: 
                l(1) =   0
                l(2) =   0
     Q(r) pseudized with 0 coefficients 


     atomic species   valence    mass     pseudopotential
        Pb            14.00   207.97600     Pb( 1.00)
        I              7.00   126.90400     I ( 1.00)
        C              4.00    12.00000     C ( 1.00)
        N              5.00    14.00300     N ( 1.00)
        H              1.00     1.00700     H ( 1.00)

     No symmetry found



   Cartesian axes

     site n.     atom                  positions (alat units)
         1           Pb  tau(   1) = (   0.0108343  -0.0020881   0.0018338  )
         2           Pb  tau(   2) = (   0.0098903   0.0003471   0.4970540  )
         3           Pb  tau(   3) = (   0.0047793   0.4899831   0.0012601  )
         4           Pb  tau(   4) = (   0.0060407   0.4891861   0.4986704  )
         5           Pb  tau(   5) = (   0.5005700  -0.0037294   0.0011381  )
         6           Pb  tau(   6) = (   0.4983268  -0.0027456   0.4981172  )
         7           Pb  tau(   7) = (   0.5038127   0.4926986   0.0005430  )
         8           Pb  tau(   8) = (   0.5044579   0.4909636   0.4997176  )
         9           I   tau(   9) = (   0.2555587   0.0580575   0.0082366  )
        10           I   tau(  10) = (  -0.0303567   0.2429860  -0.0198558  )
        11           I   tau(  11) = (  -0.0098838  -0.0061603   0.2511325  )
        12           I   tau(  12) = (   0.2535935   0.0592891   0.4959106  )
        13           I   tau(  13) = (  -0.0284018   0.2434776   0.5187685  )
        14           I   tau(  14) = (   0.0275149  -0.0319549   0.7482790  )
        15           I   tau(  15) = (   0.2540958   0.4639462   0.0188280  )
        16           I   tau(  16) = (   0.0640540   0.7353380   0.0074062  )
        17           I   tau(  17) = (  -0.0025841   0.4829079   0.2500046  )
        18           I   tau(  18) = (   0.2558213   0.4648802   0.4743978  )
        19           I   tau(  19) = (   0.0614291   0.7359846   0.4996451  )
        20           I   tau(  20) = (   0.0209363   0.4837739   0.7474827  )
        21           I   tau(  21) = (   0.7499524  -0.0288039  -0.0230582  )
        22           I   tau(  22) = (   0.5566887   0.2429319   0.0035897  )
        23           I   tau(  23) = (   0.5144786  -0.0088989   0.2503526  )
        24           I   tau(  24) = (   0.7480860  -0.0262050   0.5177480  )
        25           I   tau(  25) = (   0.5566538   0.2429892   0.5052024  )
        26           I   tau(  26) = (   0.4903309  -0.0094280   0.7476469  )
        27           I   tau(  27) = (   0.7480162   0.5519426  -0.0006787  )
        28           I   tau(  28) = (   0.4643884   0.7362755   0.0223037  )
        29           I   tau(  29) = (   0.5208208   0.4612153   0.2511842  )
        30           I   tau(  30) = (   0.7493198   0.5506470   0.5053724  )
        31           I   tau(  31) = (   0.4648296   0.7358522   0.4784607  )
        32           I   tau(  32) = (   0.4843020   0.4851451   0.7482566  )
        33           C   tau(  33) = (   0.2495602   0.2828693   0.2470494  )
        34           C   tau(  34) = (   0.2794786   0.2747139   0.7443585  )
        35           C   tau(  35) = (   0.2733279   0.7742752   0.2504307  )
        36           C   tau(  36) = (   0.2893264   0.7690378   0.7469896  )
        37           C   tau(  37) = (   0.7834862   0.2761679   0.2511194  )
        38           C   tau(  38) = (   0.7672005   0.2809518   0.7463104  )
        39           C   tau(  39) = (   0.7740761   0.7678284   0.2477238  )
        40           C   tau(  40) = (   0.7430771   0.7760982   0.7439997  )
        41           N   tau(  41) = (   0.1571997   0.2380376   0.2484724  )
        42           N   tau(  42) = (   0.3404361   0.2346419   0.2487744  )
        43           N   tau(  43) = (   0.1954228   0.1940231   0.7555764  )
        44           N   tau(  44) = (   0.2077698   0.6776926   0.2612443  )
        45           N   tau(  45) = (   0.2014085   0.6924002   0.7512105  )
        46           N   tau(  46) = (   0.6949155   0.1998093   0.2554113  )
        47           N   tau(  47) = (   0.7025277   0.1840944   0.7570375  )
        48           N   tau(  48) = (   0.6915257   0.6848686   0.2562022  )
        49           N   tau(  49) = (   0.6507223   0.7312058   0.7461675  )
        50           N   tau(  50) = (   0.8339728   0.7278884   0.7453499  )
        51           H   tau(  51) = (   0.2512806   0.3682297   0.2436250  )
        52           H   tau(  52) = (   0.1454221   0.1588301   0.2512785  )
        53           H   tau(  53) = (   0.0929752   0.2857381   0.2467577  )
        54           H   tau(  54) = (   0.3487570   0.1552561   0.2513450  )
        55           H   tau(  55) = (   0.4064220   0.2800412   0.2471839  )
        56           H   tau(  56) = (   0.1969384   0.1414659   0.6936976  )
        57           H   tau(  57) = (   0.1218913   0.2272170   0.7567763  )
        58           H   tau(  58) = (   0.2041432   0.1514236   0.8247999  )
        59           H   tau(  59) = (   0.2713607   0.3131418   0.6682100  )
        60           H   tau(  60) = (   0.3553952   0.2356819   0.7497782  )
        61           H   tau(  61) = (   0.2717707   0.3313535   0.8080169  )
        62           H   tau(  62) = (   0.2072131   0.6337251   0.1932635  )
        63           H   tau(  63) = (   0.1308634   0.6960068   0.2779106  )
        64           H   tau(  64) = (   0.2328851   0.6296907   0.3220373  )
        65           H   tau(  65) = (   0.2506737   0.8150361   0.1785430  )
        66           H   tau(  66) = (   0.3554803   0.7512134   0.2464377  )
        67           H   tau(  67) = (   0.2607447   0.8233640   0.3193695  )
        68           H   tau(  68) = (   0.1530500   0.6991256   0.6860813  )
        69           H   tau(  69) = (   0.1553237   0.7036558   0.8176192  )
        70           H   tau(  70) = (   0.2272336   0.6161820   0.7534720  )
        71           H   tau(  71) = (   0.3325312   0.7573846   0.6740890  )
        72           H   tau(  72) = (   0.3404501   0.7560151   0.8142471  )
        73           H   tau(  73) = (   0.2566875   0.8479526   0.7498396  )
        74           H   tau(  74) = (   0.6471002   0.2062983   0.1896611  )
        75           H   tau(  75) = (   0.6484532   0.2120117   0.3215743  )
        76           H   tau(  76) = (   0.7206669   0.1234887   0.2585327  )
        77           H   tau(  77) = (   0.8264734   0.2642767   0.1779536  )
        78           H   tau(  78) = (   0.8347346   0.2626688   0.3183586  )
        79           H   tau(  79) = (   0.7511024   0.3553329   0.2542853  )
        80           H   tau(  80) = (   0.7041771   0.1386168   0.6900750  )
        81           H   tau(  81) = (   0.6251055   0.2014386   0.7715668  )
        82           H   tau(  82) = (   0.7264899   0.1376323   0.8192694  )
        83           H   tau(  83) = (   0.7436482   0.3218701   0.6750085  )
        84           H   tau(  84) = (   0.8494022   0.2587081   0.7411460  )
        85           H   tau(  85) = (   0.7549270   0.3297738   0.8153762  )
        86           H   tau(  86) = (   0.6954242   0.6332809   0.1932705  )
        87           H   tau(  87) = (   0.6172430   0.7165884   0.2564327  )
        88           H   tau(  88) = (   0.6999537   0.6416892   0.3251763  )
        89           H   tau(  89) = (   0.7647899   0.8085898   0.1728071  )
        90           H   tau(  90) = (   0.8508690   0.7300359   0.2515837  )
        91           H   tau(  91) = (   0.7653671   0.8222099   0.3133994  )
        92           H   tau(  92) = (   0.7446257   0.8611840   0.7402031  )
        93           H   tau(  93) = (   0.6389873   0.6522100   0.7494287  )
        94           H   tau(  94) = (   0.5866191   0.7788231   0.7445057  )
        95           H   tau(  95) = (   0.8423884   0.6486873   0.7482057  )
        96           H   tau(  96) = (   0.8997632   0.7733425   0.7433215  )

     number of k points=    32
                       cart. coord. in units 2pi/alat
        k(    1) = (   0.1264963   0.1268352   0.1257078), wk =   0.0625000
        k(    2) = (   0.1264963   0.1268352   0.3771233), wk =   0.0625000
        k(    3) = (   0.1264963   0.3805057   0.1257078), wk =   0.0625000
        k(    4) = (   0.1264963   0.3805057   0.3771233), wk =   0.0625000
        k(    5) = (   0.3794890   0.1268352   0.1257078), wk =   0.0625000
        k(    6) = (   0.3794890   0.1268352   0.3771233), wk =   0.0625000
        k(    7) = (   0.3794890   0.3805057   0.1257078), wk =   0.0625000
        k(    8) = (   0.3794890   0.3805057   0.3771233), wk =   0.0625000
        k(    9) = (  -0.1264963  -0.1268352   0.1257078), wk =   0.0625000
        k(   10) = (  -0.1264963   0.1268352  -0.1257078), wk =   0.0625000
        k(   11) = (   0.1264963  -0.1268352  -0.1257078), wk =   0.0625000
        k(   12) = (  -0.1264963  -0.1268352   0.3771233), wk =   0.0625000
        k(   13) = (  -0.1264963   0.1268352  -0.3771233), wk =   0.0625000
        k(   14) = (   0.1264963  -0.1268352  -0.3771233), wk =   0.0625000
        k(   15) = (  -0.1264963  -0.3805057   0.1257078), wk =   0.0625000
        k(   16) = (  -0.1264963   0.3805057  -0.1257078), wk =   0.0625000
        k(   17) = (   0.1264963  -0.3805057  -0.1257078), wk =   0.0625000
        k(   18) = (  -0.1264963  -0.3805057   0.3771233), wk =   0.0625000
        k(   19) = (  -0.1264963   0.3805057  -0.3771233), wk =   0.0625000
        k(   20) = (   0.1264963  -0.3805057  -0.3771233), wk =   0.0625000
        k(   21) = (  -0.3794890  -0.1268352   0.1257078), wk =   0.0625000
        k(   22) = (  -0.3794890   0.1268352  -0.1257078), wk =   0.0625000
        k(   23) = (   0.3794890  -0.1268352  -0.1257078), wk =   0.0625000
        k(   24) = (  -0.3794890  -0.1268352   0.3771233), wk =   0.0625000
        k(   25) = (  -0.3794890   0.1268352  -0.3771233), wk =   0.0625000
        k(   26) = (   0.3794890  -0.1268352  -0.3771233), wk =   0.0625000
        k(   27) = (  -0.3794890  -0.3805057   0.1257078), wk =   0.0625000
        k(   28) = (  -0.3794890   0.3805057  -0.1257078), wk =   0.0625000
        k(   29) = (   0.3794890  -0.3805057  -0.1257078), wk =   0.0625000
        k(   30) = (  -0.3794890  -0.3805057   0.3771233), wk =   0.0625000
        k(   31) = (  -0.3794890   0.3805057  -0.3771233), wk =   0.0625000
        k(   32) = (   0.3794890  -0.3805057  -0.3771233), wk =   0.0625000

     Dense  grid:  2422817 G-vectors     FFT dimensions: ( 180, 180, 180)

     Estimated max dynamical RAM per process >       3.18 GB

     Estimated total dynamical RAM >     101.83 GB

     Initial potential from superposition of free atoms

     starting charge  407.97850, renormalised to  408.00000
     Starting wfcs are  286 randomized atomic wfcs
     Checking if some PAW data can be deallocated... 

     total cpu time spent up to now is      829.6 secs

     Self-consistent Calculation

     iteration #  1     ecut=   120.00 Ry     beta= 0.70
     Davidson diagonalization with overlap
     ethr =  1.00E-02,  avg # of iterations =  2.0

     total cpu time spent up to now is     2324.6 secs

     total energy              =  -16543.26470985 Ry
     Harris-Foulkes estimate   =  -16546.87303576 Ry
     estimated scf accuracy    <       5.98934314 Ry

     iteration #  2     ecut=   120.00 Ry     beta= 0.70
     Davidson diagonalization with overlap
     ethr =  1.47E-03,  avg # of iterations =  3.8

     total cpu time spent up to now is     4381.7 secs

     total energy              =  -16544.57185476 Ry
     Harris-Foulkes estimate   =  -16546.00283298 Ry
     estimated scf accuracy    <       2.57364311 Ry

     iteration #  3     ecut=   120.00 Ry     beta= 0.70
     Davidson diagonalization with overlap
     ethr =  6.31E-04,  avg # of iterations =  4.0

     total cpu time spent up to now is     6001.2 secs

     total energy              =  -16545.16728829 Ry
     Harris-Foulkes estimate   =  -16545.22244062 Ry
     estimated scf accuracy    <       0.12297939 Ry

     iteration #  4     ecut=   120.00 Ry     beta= 0.70
     Davidson diagonalization with overlap
     ethr =  3.01E-05,  avg # of iterations =  4.0

     total cpu time spent up to now is     8038.0 secs

     total energy              =  -16545.20003963 Ry
     Harris-Foulkes estimate   =  -16545.21712306 Ry
     estimated scf accuracy    <       0.03289598 Ry

     iteration #  5     ecut=   120.00 Ry     beta= 0.70
     Davidson diagonalization with overlap
     ethr =  8.06E-06,  avg # of iterations =  4.0

     total cpu time spent up to now is     9703.8 secs

     total energy              =  -16545.20664805 Ry
     Harris-Foulkes estimate   =  -16545.20773292 Ry
     estimated scf accuracy    <       0.00210193 Ry

     iteration #  6     ecut=   120.00 Ry     beta= 0.70
     Davidson diagonalization with overlap
     ethr =  5.15E-07,  avg # of iterations =  4.0

     total cpu time spent up to now is    11906.9 secs

     total energy              =  -16545.20727079 Ry
     Harris-Foulkes estimate   =  -16545.20750236 Ry
     estimated scf accuracy    <       0.00051578 Ry

     iteration #  7     ecut=   120.00 Ry     beta= 0.70
     Davidson diagonalization with overlap
     ethr =  1.26E-07,  avg # of iterations =  3.4

     total cpu time spent up to now is    14198.6 secs

     total energy              =  -16545.20737787 Ry
     Harris-Foulkes estimate   =  -16545.20739815 Ry
     estimated scf accuracy    <       0.00004356 Ry

     iteration #  8     ecut=   120.00 Ry     beta= 0.70
     Davidson diagonalization with overlap
     ethr =  1.07E-08,  avg # of iterations =  4.0

     total cpu time spent up to now is    16608.9 secs

     total energy              =  -16545.20738904 Ry
     Harris-Foulkes estimate   =  -16545.20740046 Ry
     estimated scf accuracy    <       0.00002660 Ry

     iteration #  9     ecut=   120.00 Ry     beta= 0.70
     Davidson diagonalization with overlap
     ethr =  6.52E-09,  avg # of iterations =  4.0

     total cpu time spent up to now is    18723.7 secs

     total energy              =  -16545.20739455 Ry
     Harris-Foulkes estimate   =  -16545.20739514 Ry
     estimated scf accuracy    <       0.00000131 Ry

     iteration # 10     ecut=   120.00 Ry     beta= 0.70
     Davidson diagonalization with overlap
     ethr =  3.22E-10,  avg # of iterations =  4.0

     total cpu time spent up to now is    21056.6 secs

     total energy              =  -16545.20739491 Ry
     Harris-Foulkes estimate   =  -16545.20739500 Ry
     estimated scf accuracy    <       0.00000019 Ry

     iteration # 11     ecut=   120.00 Ry     beta= 0.70
     Davidson diagonalization with overlap
     ethr =  4.74E-11,  avg # of iterations =  4.0

     total cpu time spent up to now is    23291.7 secs

     End of self-consistent calculation

          k = 0.1265 0.1268 0.1257 (302827 PWs)   bands (ev):

   -17.8996 -17.8797 -17.7450 -17.7144 -17.6225 -17.6216 -17.5803 -17.5732
   -15.7539 -15.7289 -14.2469 -14.2405 -14.2310 -14.2281 -14.2263 -14.2196
   -14.2158 -14.2121 -14.2120 -14.2079 -14.2007 -14.2005 -14.1996 -14.1983
   -14.1981 -14.1938 -14.1925 -14.1904 -14.1893 -14.1888 -14.1881 -14.1875
   -14.1861 -14.1860 -14.1848 -14.1815 -14.1752 -14.1751 -14.1741 -14.1712
   -14.1666 -14.1660 -14.1629 -14.1622 -14.1614 -14.1596 -14.1586 -14.1579
   -14.1524 -14.1514 -10.6585 -10.6350 -10.5827 -10.5721 -10.5613 -10.5413
    -9.7296  -9.6962  -9.6157  -9.5161  -9.4902  -9.4400  -9.3810  -9.3507
    -9.3285  -9.2852  -9.2439  -9.2231  -9.1776  -9.1660  -9.1541  -9.1319
    -9.1277  -9.1199  -9.0864  -9.0802  -9.0513  -8.9948  -8.9692  -8.9585
    -8.9094  -8.9054  -7.7398  -7.7138  -7.1664  -7.1561  -7.1429  -7.1383
    -7.0656  -7.0570  -7.0501  -7.0316  -7.0183  -7.0055  -6.9979  -6.9810
    -6.9773  -6.9476  -5.8709  -5.4596  -5.4181  -5.4011  -5.3879  -5.3567
    -5.0449  -5.0221  -5.0048  -4.9787  -4.9553  -4.9441  -4.9358  -4.9134
    -4.9027  -4.5267  -3.8665  -3.8333  -3.3044  -3.2911  -2.8904  -2.8832
    -2.8472  -2.8352  -2.8301  -2.8251  -2.8075  -2.8032  -2.7934  -2.7851
    -2.7837  -2.7770  -0.9406  -0.8956  -0.8078  -0.7995  -0.7703  -0.7074
    -0.7025  -0.6742  -0.6419  -0.6087  -0.5740  -0.5068  -0.1218  -0.0386
     0.2431   0.2549   0.3576   0.3640   0.4099   0.4155   0.5034   0.5301
     0.5720   0.5829   0.6523   0.6743   0.6951   0.7689   0.8145   0.8170
     0.8637   0.8743   0.9040   0.9183   0.9222   0.9436   0.9767   1.0083
     1.0334   1.0396   1.0649   1.0681   1.0845   1.0978   1.1093   1.1592
     1.1626   1.1921   1.2056   1.2288   1.2335   1.2685   1.2788   1.2952
     1.3119   1.3192   1.3439   1.3636   1.3691   1.3822   1.4444   1.4910
     1.5222   1.5491   1.5516   1.6001   1.6058   1.6654   1.7571   1.7738
     1.8186   1.8537   1.8908   2.1449

          k = 0.1265 0.1268 0.3771 (302958 PWs)   bands (ev):

   -17.8996 -17.8797 -17.7450 -17.7144 -17.6225 -17.6216 -17.5803 -17.5732
   -15.7539 -15.7289 -14.2452 -14.2380 -14.2327 -14.2306 -14.2263 -14.2194
   -14.2150 -14.2119 -14.2113 -14.2059 -14.2012 -14.2007 -14.2005 -14.2003
   -14.1983 -14.1938 -14.1925 -14.1904 -14.1894 -14.1888 -14.1881 -14.1875
   -14.1861 -14.1860 -14.1848 -14.1815 -14.1752 -14.1751 -14.1741 -14.1712
   -14.1666 -14.1660 -14.1629 -14.1622 -14.1614 -14.1596 -14.1586 -14.1579
   -14.1524 -14.1514 -10.6584 -10.6348 -10.5828 -10.5722 -10.5613 -10.5414
    -9.7169  -9.6922  -9.6001  -9.5511  -9.4804  -9.4289  -9.4252  -9.3815
    -9.3397  -9.3296  -9.1982  -9.1754  -9.1656  -9.1461  -9.1443  -9.1387
    -9.1138  -9.0962  -9.0776  -9.0677  -9.0459  -9.0148  -9.0017  -8.9855
    -8.9098  -8.9063  -7.7400  -7.7141  -7.1665  -7.1542  -7.1404  -7.1381
    -7.0652  -7.0556  -7.0507  -7.0347  -7.0189  -7.0064  -6.9975  -6.9803
    -6.9776  -6.9479  -5.7423  -5.5459  -5.3977  -5.3774  -5.3324  -5.2844
    -5.1380  -5.1030  -5.0389  -5.0077  -4.9643  -4.9436  -4.9331  -4.9078
    -4.8619  -4.6844  -3.8667  -3.8334  -3.3042  -3.2909  -2.8859  -2.8822
    -2.8467  -2.8388  -2.8311  -2.8293  -2.8073  -2.8069  -2.7907  -2.7852
    -2.7781  -2.7750  -0.7947  -0.7389  -0.7367  -0.6957  -0.6901  -0.6388
    -0.6101  -0.5520  -0.4669  -0.4381  -0.3508  -0.2978  -0.1168  -0.0548
     0.1343   0.1746   0.2572   0.2789   0.3624   0.3836   0.4101   0.4260
     0.4313   0.4396   0.4720   0.5147   0.5191   0.5627   0.7757   0.7980
     0.8174   0.8298   0.8775   0.8829   0.9171   0.9351   0.9639   0.9990
     1.0043   1.0088   1.0499   1.0687   1.0981   1.1210   1.1713   1.1771
     1.1853   1.2068   1.2257   1.2368   1.2614   1.2744   1.2792   1.2879
     1.3334   1.3430   1.3572   1.3595   1.3810   1.3906   1.4239   1.4399
     1.4923   1.5046   1.5232   1.5281   1.5756   1.6370   1.6551   1.6919
     1.7522   1.7543   1.8835   1.9468

          k = 0.1265 0.3805 0.1257 (302877 PWs)   bands (ev):

   -17.8996 -17.8797 -17.7450 -17.7144 -17.6224 -17.6217 -17.5803 -17.5732
   -15.7539 -15.7289 -14.2469 -14.2404 -14.2308 -14.2280 -14.2259 -14.2191
   -14.2149 -14.2121 -14.2110 -14.2086 -14.2014 -14.2005 -14.1999 -14.1984
   -14.1983 -14.1944 -14.1925 -14.1904 -14.1893 -14.1891 -14.1885 -14.1875
   -14.1861 -14.1860 -14.1848 -14.1815 -14.1752 -14.1751 -14.1741 -14.1712
   -14.1666 -14.1660 -14.1629 -14.1622 -14.1614 -14.1596 -14.1586 -14.1579
   -14.1524 -14.1514 -10.6583 -10.6349 -10.5819 -10.5731 -10.5609 -10.5420
    -9.7205  -9.6984  -9.5921  -9.5451  -9.4782  -9.4218  -9.4141  -9.3745
    -9.3239  -9.3102  -9.2488  -9.2332  -9.1839  -9.1789  -9.1268  -9.1242
    -9.1049  -9.0982  -9.0810  -9.0750  -9.0121  -8.9925  -8.9891  -8.9570
    -8.9277  -8.9208  -7.7394  -7.7136  -7.1665  -7.1559  -7.1431  -7.1382
    -7.0654  -7.0568  -7.0502  -7.0317  -7.0181  -7.0056  -6.9981  -6.9811
    -6.9774  -6.9477  -5.7511  -5.5718  -5.4010  -5.3804  -5.3238  -5.2663
    -5.1548  -5.0962  -5.0399  -5.0073  -4.9551  -4.9505  -4.9204  -4.9148
    -4.8328  -4.6655  -3.8665  -3.8333  -3.3044  -3.2911  -2.8853  -2.8822
    -2.8456  -2.8382  -2.8292  -2.8270  -2.8028  -2.8012  -2.7961  -2.7902
    -2.7829  -2.7794  -0.9129  -0.8950  -0.7886  -0.7629  -0.7236  -0.6935
    -0.6270  -0.5727  -0.4207  -0.3281  -0.2742  -0.2117  -0.0687  -0.0549
     0.1053   0.2119   0.2554   0.3062   0.3308   0.3547   0.3672   0.4236
     0.4578   0.4821   0.5133   0.5280   0.6149   0.7036   0.7356   0.7621
     0.7961   0.8083   0.8929   0.9102   0.9352   0.9648   0.9820   0.9850
     0.9972   1.0307   1.0541   1.0589   1.0908   1.0951   1.1355   1.1606
     1.1834   1.1920   1.2122   1.2595   1.2643   1.2696   1.2880   1.2953
     1.3158   1.3194   1.3413   1.3689   1.3976   1.4194   1.4531   1.4550
     1.4860   1.4969   1.5149   1.5771   1.6103   1.6668   1.6706   1.7054
     1.7258   1.7346   1.9004   1.9618

          k = 0.1265 0.3805 0.3771 (302883 PWs)   bands (ev):

   -17.8996 -17.8797 -17.7450 -17.7144 -17.6224 -17.6217 -17.5803 -17.5732
   -15.7539 -15.7289 -14.2451 -14.2380 -14.2325 -14.2305 -14.2259 -14.2189
   -14.2138 -14.2117 -14.2110 -14.2064 -14.2014 -14.2014 -14.2009 -14.2005
   -14.1983 -14.1944 -14.1925 -14.1904 -14.1893 -14.1891 -14.1885 -14.1875
   -14.1861 -14.1860 -14.1848 -14.1815 -14.1752 -14.1751 -14.1741 -14.1712
   -14.1666 -14.1660 -14.1629 -14.1622 -14.1614 -14.1596 -14.1586 -14.1579
   -14.1524 -14.1514 -10.6582 -10.6347 -10.5819 -10.5733 -10.5609 -10.5421
    -9.7143  -9.6905  -9.5759  -9.5450  -9.4750  -9.4471  -9.4392  -9.4090
    -9.3572  -9.3453  -9.1931  -9.1814  -9.1497  -9.1403  -9.1330  -9.1231
    -9.1037  -9.0991  -9.0745  -9.0730  -9.0377  -9.0196  -8.9819  -8.9665
    -8.9326  -8.9257  -7.7396  -7.7138  -7.1665  -7.1541  -7.1407  -7.1379
    -7.0653  -7.0555  -7.0506  -7.0348  -7.0185  -7.0067  -6.9974  -6.9802
    -6.9777  -6.9479  -5.6261  -5.4654  -5.4273  -5.3936  -5.3669  -5.2492
    -5.2063  -5.0741  -5.0347  -5.0212  -4.9860  -4.9550  -4.9378  -4.9132
    -4.9008  -4.8127  -3.8666  -3.8334  -3.3043  -3.2910  -2.8852  -2.8823
    -2.8471  -2.8364  -2.8344  -2.8250  -2.8053  -2.8027  -2.7943  -2.7886
    -2.7781  -2.7760  -0.7231  -0.6843  -0.6510  -0.6105  -0.5480  -0.4947
    -0.4388  -0.3766  -0.3474  -0.3150  -0.2457  -0.2208  -0.0735  -0.0613
     0.0708   0.1172   0.1879   0.2204   0.2313   0.2687   0.2948   0.3560
     0.4068   0.4215   0.4621   0.4640   0.5826   0.6119   0.6680   0.6791
     0.7365   0.7414   0.7748   0.8075   0.8101   0.8191   0.9202   0.9360
     0.9491   0.9566   1.0432   1.0489   1.0730   1.0782   1.1620   1.1778
     1.2209   1.2281   1.2604   1.2651   1.2758   1.2830   1.2956   1.3239
     1.3293   1.3463   1.3727   1.3756   1.3931   1.4009   1.4157   1.4326
     1.4748   1.4842   1.5090   1.5193   1.5719   1.5950   1.6376   1.6659
     1.7079   1.7109   1.7350   1.7632

          k = 0.3795 0.1268 0.1257 (302873 PWs)   bands (ev):

   -17.8996 -17.8797 -17.7450 -17.7144 -17.6225 -17.6216 -17.5803 -17.5732
   -15.7539 -15.7289 -14.2469 -14.2404 -14.2309 -14.2280 -14.2259 -14.2185
   -14.2160 -14.2118 -14.2116 -14.2083 -14.2011 -14.2005 -14.1997 -14.1984
   -14.1983 -14.1940 -14.1925 -14.1904 -14.1894 -14.1892 -14.1886 -14.1875
   -14.1861 -14.1860 -14.1848 -14.1815 -14.1752 -14.1751 -14.1741 -14.1712
   -14.1666 -14.1660 -14.1629 -14.1622 -14.1614 -14.1596 -14.1586 -14.1579
   -14.1524 -14.1514 -10.6583 -10.6349 -10.5827 -10.5726 -10.5613 -10.5418
    -9.7122  -9.6885  -9.6055  -9.5652  -9.4689  -9.4189  -9.4114  -9.3695
    -9.3250  -9.3165  -9.2365  -9.2287  -9.1876  -9.1849  -9.1519  -9.1421
    -9.1117  -9.0948  -9.0568  -9.0517  -9.0088  -8.9859  -8.9816  -8.9572
    -8.9368  -8.9330  -7.7400  -7.7142  -7.1666  -7.1561  -7.1430  -7.1384
    -7.0648  -7.0570  -7.0506  -7.0312  -7.0186  -7.0051  -6.9980  -6.9816
    -6.9769  -6.9477  -5.7543  -5.5795  -5.4008  -5.3798  -5.3135  -5.2716
    -5.1505  -5.1033  -5.0396  -5.0069  -4.9595  -4.9442  -4.9274  -4.9070
    -4.8258  -4.6613  -3.8670  -3.8337  -3.3044  -3.2911  -2.8881  -2.8855
    -2.8396  -2.8339  -2.8269  -2.8209  -2.8115  -2.8062  -2.7955  -2.7896
    -2.7836  -2.7786  -0.9231  -0.9066  -0.7918  -0.7839  -0.7310  -0.7207
    -0.6342  -0.6006  -0.3956  -0.3370  -0.2828  -0.1971  -0.0803  -0.0091
     0.1276   0.2349   0.2566   0.2665   0.3340   0.3961   0.4027   0.4444
     0.4917   0.4940   0.5472   0.5805   0.6287   0.6641   0.7225   0.7366
     0.7625   0.8065   0.8926   0.9079   0.9142   0.9541   0.9573   0.9733
     1.0213   1.0279   1.0640   1.0674   1.0827   1.1086   1.1274   1.1324
     1.1830   1.2003   1.2094   1.2388   1.2405   1.2615   1.2899   1.2923
     1.3092   1.3123   1.3530   1.3575   1.3925   1.4163   1.4532   1.4793
     1.4844   1.5067   1.5277   1.5712   1.6045   1.6347   1.6801   1.7215
     1.7384   1.7696   1.8854   1.9554

          k = 0.3795 0.1268 0.3771 (302871 PWs)   bands (ev):

   -17.8996 -17.8797 -17.7450 -17.7144 -17.6225 -17.6216 -17.5803 -17.5732
   -15.7539 -15.7289 -14.2451 -14.2379 -14.2326 -14.2305 -14.2259 -14.2184
   -14.2150 -14.2114 -14.2113 -14.2062 -14.2014 -14.2010 -14.2008 -14.2004
   -14.1983 -14.1940 -14.1925 -14.1904 -14.1894 -14.1892 -14.1886 -14.1875
   -14.1861 -14.1860 -14.1848 -14.1815 -14.1752 -14.1751 -14.1741 -14.1712
   -14.1666 -14.1660 -14.1629 -14.1622 -14.1614 -14.1596 -14.1586 -14.1579
   -14.1524 -14.1514 -10.6582 -10.6346 -10.5827 -10.5727 -10.5613 -10.5419
    -9.7083  -9.6833  -9.5791  -9.5340  -9.5152  -9.4708  -9.4171  -9.3887
    -9.3551  -9.3417  -9.1945  -9.1833  -9.1646  -9.1540  -9.1411  -9.1320
    -9.0923  -9.0827  -9.0640  -9.0588  -9.0351  -9.0120  -8.9807  -8.9707
    -8.9384  -8.9344  -7.7403  -7.7145  -7.1666  -7.1543  -7.1405  -7.1382
    -7.0647  -7.0554  -7.0512  -7.0343  -7.0192  -7.0059  -6.9976  -6.9805
    -6.9775  -6.9479  -5.6285  -5.4589  -5.4356  -5.3959  -5.3747  -5.2602
    -5.1962  -5.0701  -5.0319  -5.0182  -4.9804  -4.9520  -4.9428  -4.9099
    -4.8990  -4.8087  -3.8670  -3.8338  -3.3043  -3.2910  -2.8851  -2.8829
    -2.8414  -2.8362  -2.8292  -2.8267  -2.8111  -2.8098  -2.7905  -2.7842
    -2.7818  -2.7770  -0.7681  -0.7325  -0.7015  -0.6669  -0.4930  -0.4756
    -0.4061  -0.3784  -0.3209  -0.3151  -0.2182  -0.2130  -0.0896  -0.0794
     0.1147   0.1539   0.1908   0.2139   0.2607   0.2819   0.3177   0.3459
     0.3697   0.3948   0.4520   0.4742   0.5934   0.6026   0.6934   0.7068
     0.7515   0.7670   0.8022   0.8212   0.8518   0.8551   0.8932   0.9152
     0.9582   0.9587   0.9944   1.0040   1.0451   1.0775   1.1371   1.1714
     1.2004   1.2037   1.2423   1.2514   1.2752   1.2877   1.3084   1.3105
     1.3433   1.3472   1.3597   1.3735   1.3924   1.4001   1.4272   1.4416
     1.4668   1.5001   1.5115   1.5140   1.5589   1.5992   1.6194   1.6378
     1.6916   1.7178   1.7897   1.8038

          k = 0.3795 0.3805 0.1257 (302840 PWs)   bands (ev):

   -17.8996 -17.8797 -17.7450 -17.7144 -17.6224 -17.6217 -17.5803 -17.5732
   -15.7539 -15.7289 -14.2468 -14.2403 -14.2307 -14.2279 -14.2254 -14.2180
   -14.2155 -14.2114 -14.2105 -14.2089 -14.2020 -14.2005 -14.2000 -14.1986
   -14.1983 -14.1947 -14.1925 -14.1905 -14.1896 -14.1895 -14.1888 -14.1875
   -14.1861 -14.1860 -14.1848 -14.1815 -14.1752 -14.1751 -14.1741 -14.1712
   -14.1666 -14.1660 -14.1629 -14.1622 -14.1614 -14.1596 -14.1586 -14.1579
   -14.1524 -14.1514 -10.6585 -10.6350 -10.5819 -10.5731 -10.5609 -10.5420
    -9.7123  -9.6880  -9.5756  -9.5505  -9.5053  -9.4544  -9.3897  -9.3768
    -9.3205  -9.3175  -9.2621  -9.2504  -9.2089  -9.2008  -9.1169  -9.1080
    -9.0878  -9.0705  -9.0461  -9.0432  -9.0147  -8.9910  -8.9782  -8.9707
    -8.9497  -8.9418  -7.7396  -7.7139  -7.1666  -7.1561  -7.1432  -7.1383
    -7.0648  -7.0564  -7.0509  -7.0313  -7.0184  -7.0052  -6.9983  -6.9818
    -6.9769  -6.9477  -5.6380  -5.4971  -5.4235  -5.3998  -5.3790  -5.2856
    -5.1706  -5.0454  -5.0330  -5.0127  -4.9698  -4.9488  -4.9340  -4.9097
    -4.8947  -4.7905  -3.8671  -3.8338  -3.3044  -3.2912  -2.8849  -2.8828
    -2.8398  -2.8368  -2.8246  -2.8214  -2.8074  -2.8062  -2.7979  -2.7915
    -2.7853  -2.7805  -0.9029  -0.8900  -0.7889  -0.7709  -0.4550  -0.4123
    -0.3614  -0.3448  -0.3157  -0.2779  -0.2449  -0.2092  -0.0368  -0.0205
     0.1056   0.1351   0.2444   0.2521   0.2941   0.2963   0.3434   0.3493
     0.3838   0.4268   0.4540   0.4656   0.5228   0.5473   0.5950   0.6837
     0.7490   0.8336   0.8580   0.8795   0.8886   0.9339   0.9476   1.0016
     1.0217   1.0312   1.0419   1.0464   1.0705   1.0781   1.0913   1.1296
     1.1665   1.1801   1.2042   1.2241   1.2291   1.2393   1.2515   1.2790
     1.2833   1.3021   1.3357   1.3495   1.3790   1.3985   1.4676   1.4749
     1.4796   1.5009   1.5347   1.5429   1.6043   1.6086   1.6483   1.6794
     1.7033   1.7222   1.7946   1.8128

          k = 0.3795 0.3805 0.3771 (302825 PWs)   bands (ev):

   -17.8996 -17.8797 -17.7450 -17.7144 -17.6224 -17.6217 -17.5803 -17.5732
   -15.7539 -15.7289 -14.2450 -14.2378 -14.2324 -14.2304 -14.2254 -14.2179
   -14.2142 -14.2113 -14.2104 -14.2066 -14.2020 -14.2016 -14.2011 -14.2005
   -14.1983 -14.1947 -14.1925 -14.1904 -14.1896 -14.1895 -14.1889 -14.1875
   -14.1861 -14.1860 -14.1848 -14.1815 -14.1752 -14.1751 -14.1741 -14.1712
   -14.1666 -14.1660 -14.1629 -14.1622 -14.1614 -14.1596 -14.1586 -14.1579
   -14.1524 -14.1514 -10.6583 -10.6348 -10.5819 -10.5733 -10.5609 -10.5421
    -9.7090  -9.6837  -9.5500  -9.5256  -9.4947  -9.4631  -9.4483  -9.4336
    -9.3756  -9.3632  -9.1972  -9.1880  -9.1435  -9.1374  -9.1349  -9.1244
    -9.0834  -9.0794  -9.0590  -9.0457  -9.0299  -9.0152  -8.9752  -8.9724
    -8.9529  -8.9465  -7.7399  -7.7141  -7.1666  -7.1542  -7.1407  -7.1380
    -7.0648  -7.0553  -7.0512  -7.0344  -7.0188  -7.0062  -6.9975  -6.9805
    -6.9776  -6.9480  -5.5165  -5.4093  -5.3869  -5.3636  -5.3231  -5.2975
    -5.1916  -5.1701  -5.1142  -5.0472  -5.0092  -4.9780  -4.9410  -4.9256
    -4.9068  -4.8881  -3.8671  -3.8338  -3.3043  -3.2910  -2.8849  -2.8826
    -2.8425  -2.8373  -2.8278  -2.8238  -2.8082  -2.8057  -2.7940  -2.7883
    -2.7816  -2.7776  -0.5597  -0.5293  -0.4715  -0.4281  -0.3853  -0.3780
    -0.3526  -0.3334  -0.2891  -0.2671  -0.2287  -0.2093  -0.0742  -0.0491
     0.1003   0.1241   0.1568   0.1595   0.1883   0.2382   0.2660   0.2783
     0.2956   0.3381   0.3510   0.3780   0.5934   0.6183   0.6585   0.6916
     0.7223   0.7422   0.7653   0.7847   0.8041   0.8221   0.8547   0.8725
     0.9110   0.9381   0.9759   0.9795   1.0202   1.0422   1.0592   1.0823
     1.1108   1.1328   1.1751   1.2265   1.2702   1.2759   1.3020   1.3081
     1.3160   1.3409   1.3570   1.3676   1.3852   1.3919   1.3955   1.4177
     1.4757   1.4825   1.5034   1.5067   1.5896   1.5931   1.6095   1.6185
     1.6614   1.6768   1.7115   1.7166

          k =-0.1265-0.1268 0.1257 (302827 PWs)   bands (ev):

   -17.8996 -17.8797 -17.7450 -17.7144 -17.6225 -17.6216 -17.5803 -17.5732
   -15.7539 -15.7289 -14.2469 -14.2405 -14.2310 -14.2281 -14.2263 -14.2196
   -14.2158 -14.2121 -14.2120 -14.2079 -14.2007 -14.2005 -14.1996 -14.1983
   -14.1981 -14.1938 -14.1925 -14.1904 -14.1893 -14.1888 -14.1881 -14.1875
   -14.1861 -14.1860 -14.1848 -14.1815 -14.1752 -14.1751 -14.1741 -14.1712
   -14.1666 -14.1660 -14.1629 -14.1622 -14.1614 -14.1596 -14.1586 -14.1579
   -14.1524 -14.1514 -10.6585 -10.6350 -10.5827 -10.5721 -10.5613 -10.5413
    -9.7292  -9.6962  -9.6155  -9.5165  -9.4919  -9.4398  -9.3808  -9.3487
    -9.3281  -9.2857  -9.2439  -9.2220  -9.1812  -9.1663  -9.1521  -9.1354
    -9.1237  -9.1214  -9.0857  -9.0792  -9.0509  -8.9960  -8.9705  -8.9568
    -8.9096  -8.9055  -7.7398  -7.7138  -7.1664  -7.1561  -7.1430  -7.1382
    -7.0656  -7.0569  -7.0501  -7.0316  -7.0184  -7.0054  -6.9980  -6.9810
    -6.9774  -6.9476  -5.8711  -5.4593  -5.4163  -5.4032  -5.3881  -5.3564
    -5.0440  -5.0200  -5.0043  -4.9814  -4.9542  -4.9442  -4.9359  -4.9149
    -4.9029  -4.5265  -3.8665  -3.8333  -3.3044  -3.2911  -2.8896  -2.8824
    -2.8469  -2.8382  -2.8306  -2.8224  -2.8081  -2.8027  -2.7929  -2.7861
    -2.7839  -2.7774  -0.9363  -0.8947  -0.8125  -0.7977  -0.7651  -0.7110
    -0.7057  -0.6802  -0.6341  -0.6130  -0.5746  -0.5060  -0.1242  -0.0369
     0.2437   0.2535   0.3576   0.3667   0.4084   0.4148   0.5030   0.5332
     0.5712   0.5833   0.6560   0.6825   0.7050   0.7592   0.7971   0.8134
     0.8550   0.8802   0.9155   0.9168   0.9237   0.9453   0.9905   1.0038
     1.0289   1.0366   1.0631   1.0691   1.0811   1.0928   1.1096   1.1618
     1.1671   1.1956   1.2025   1.2293   1.2420   1.2669   1.2725   1.2996
     1.3120   1.3164   1.3418   1.3597   1.3747   1.3816   1.4422   1.4932
     1.5228   1.5478   1.5489   1.6006   1.6075   1.6674   1.7544   1.7748
     1.8275   1.8427   1.8893   2.1443

          k =-0.1265 0.1268-0.1257 (302827 PWs)   bands (ev):

   -17.8996 -17.8797 -17.7450 -17.7144 -17.6225 -17.6216 -17.5803 -17.5732
   -15.7539 -15.7289 -14.2469 -14.2405 -14.2310 -14.2281 -14.2263 -14.2196
   -14.2158 -14.2121 -14.2120 -14.2079 -14.2007 -14.2005 -14.1996 -14.1983
   -14.1981 -14.1938 -14.1925 -14.1904 -14.1894 -14.1888 -14.1881 -14.1875
   -14.1861 -14.1860 -14.1848 -14.1815 -14.1752 -14.1751 -14.1741 -14.1712
   -14.1666 -14.1660 -14.1629 -14.1622 -14.1614 -14.1596 -14.1586 -14.1579
   -14.1524 -14.1514 -10.6587 -10.6352 -10.5828 -10.5719 -10.5613 -10.5410
    -9.7320  -9.6954  -9.6149  -9.5150  -9.4877  -9.4389  -9.3859  -9.3465
    -9.3307  -9.2879  -9.2420  -9.2235  -9.1894  -9.1595  -9.1514  -9.1326
    -9.1287  -9.1078  -9.0852  -9.0784  -9.0618  -8.9961  -8.9697  -8.9596
    -8.9084  -8.9035  -7.7398  -7.7138  -7.1665  -7.1561  -7.1430  -7.1383
    -7.0654  -7.0571  -7.0501  -7.0316  -7.0184  -7.0055  -6.9980  -6.9810
    -6.9773  -6.9476  -5.8714  -5.4569  -5.4177  -5.4040  -5.3882  -5.3565
    -5.0463  -5.0210  -5.0073  -4.9787  -4.9548  -4.9445  -4.9347  -4.9139
    -4.8998  -4.5269  -3.8666  -3.8333  -3.3044  -3.2911  -2.8899  -2.8822
    -2.8466  -2.8373  -2.8319  -2.8225  -2.8082  -2.8035  -2.7931  -2.7854
    -2.7836  -2.7769  -0.9405  -0.8925  -0.8433  -0.7951  -0.7425  -0.7123
    -0.7035  -0.6878  -0.6344  -0.5933  -0.5722  -0.5052  -0.1246  -0.0367
     0.2368   0.2623   0.3571   0.3637   0.4037   0.4194   0.4910   0.5349
     0.5718   0.5767   0.6582   0.6875   0.7086   0.7490   0.7759   0.8207
     0.8399   0.8877   0.9107   0.9205   0.9314   0.9547   0.9853   1.0069
     1.0217   1.0526   1.0673   1.0788   1.0815   1.0983   1.1160   1.1502
     1.1741   1.1857   1.2003   1.2283   1.2328   1.2770   1.2851   1.2973
     1.3029   1.3250   1.3442   1.3506   1.3637   1.3832   1.4553   1.4910
     1.5165   1.5394   1.5529   1.5964   1.6066   1.6670   1.7478   1.7713
     1.8273   1.8556   1.8957   2.1530

          k = 0.1265-0.1268-0.1257 (302827 PWs)   bands (ev):

   -17.8996 -17.8797 -17.7450 -17.7144 -17.6225 -17.6216 -17.5803 -17.5732
   -15.7539 -15.7289 -14.2469 -14.2405 -14.2310 -14.2281 -14.2263 -14.2196
   -14.2158 -14.2121 -14.2120 -14.2079 -14.2007 -14.2005 -14.1996 -14.1983
   -14.1981 -14.1938 -14.1925 -14.1904 -14.1894 -14.1888 -14.1881 -14.1875
   -14.1861 -14.1860 -14.1848 -14.1815 -14.1752 -14.1751 -14.1741 -14.1712
   -14.1666 -14.1660 -14.1629 -14.1622 -14.1614 -14.1596 -14.1586 -14.1579
   -14.1524 -14.1514 -10.6587 -10.6352 -10.5827 -10.5718 -10.5613 -10.5410
    -9.7318  -9.6955  -9.6152  -9.5158  -9.4868  -9.4388  -9.3855  -9.3473
    -9.3320  -9.2837  -9.2453  -9.2213  -9.1912  -9.1590  -9.1504  -9.1353
    -9.1294  -9.1058  -9.0862  -9.0773  -9.0620  -8.9957  -8.9692  -8.9602
    -8.9089  -8.9032  -7.7398  -7.7138  -7.1665  -7.1560  -7.1430  -7.1383
    -7.0655  -7.0570  -7.0501  -7.0316  -7.0184  -7.0055  -6.9979  -6.9808
    -6.9774  -6.9476  -5.8712  -5.4573  -5.4191  -5.4023  -5.3880  -5.3567
    -5.0465  -5.0216  -5.0074  -4.9796  -4.9529  -4.9447  -4.9340  -4.9142
    -4.9002  -4.5268  -3.8666  -3.8333  -3.3044  -3.2911  -2.8909  -2.8828
    -2.8475  -2.8353  -2.8296  -2.8243  -2.8082  -2.8030  -2.7926  -2.7857
    -2.7842  -2.7770  -0.9416  -0.8918  -0.8470  -0.8013  -0.7373  -0.7064
    -0.6998  -0.6974  -0.6200  -0.6015  -0.5717  -0.5058  -0.1224  -0.0384
     0.2366   0.2612   0.3572   0.3655   0.4040   0.4181   0.4911   0.5340
     0.5732   0.5736   0.6555   0.6797   0.7115   0.7521   0.7786   0.8261
     0.8365   0.8929   0.9114   0.9232   0.9303   0.9478   0.9868   1.0156
     1.0222   1.0415   1.0590   1.0815   1.0846   1.0990   1.1093   1.1515
     1.1777   1.1876   1.1999   1.2321   1.2343   1.2749   1.2838   1.3007
     1.3059   1.3248   1.3389   1.3521   1.3603   1.3827   1.4571   1.4972
     1.5072   1.5414   1.5530   1.5953   1.6067   1.6701   1.7456   1.7681
     1.8260   1.8656   1.8927   2.1539

          k =-0.1265-0.1268 0.3771 (302958 PWs)   bands (ev):

   -17.8996 -17.8797 -17.7450 -17.7144 -17.6225 -17.6216 -17.5803 -17.5732
   -15.7539 -15.7289 -14.2452 -14.2380 -14.2327 -14.2306 -14.2263 -14.2194
   -14.2150 -14.2119 -14.2113 -14.2059 -14.2012 -14.2007 -14.2005 -14.2003
   -14.1983 -14.1938 -14.1925 -14.1904 -14.1894 -14.1888 -14.1881 -14.1875
   -14.1861 -14.1860 -14.1848 -14.1815 -14.1752 -14.1751 -14.1741 -14.1712
   -14.1666 -14.1660 -14.1629 -14.1622 -14.1614 -14.1596 -14.1586 -14.1579
   -14.1524 -14.1514 -10.6584 -10.6348 -10.5828 -10.5721 -10.5614 -10.5414
    -9.7166  -9.6922  -9.5992  -9.5529  -9.4825  -9.4283  -9.4232  -9.3809
    -9.3403  -9.3293  -9.1990  -9.1724  -9.1648  -9.1504  -9.1419  -9.1387
    -9.1202  -9.0963  -9.0756  -9.0620  -9.0401  -9.0236  -9.0049  -8.9815
    -8.9099  -8.9065  -7.7399  -7.7142  -7.1665  -7.1542  -7.1405  -7.1380
    -7.0651  -7.0554  -7.0508  -7.0347  -7.0189  -7.0064  -6.9976  -6.9802
    -6.9777  -6.9479  -5.7427  -5.5451  -5.3979  -5.3777  -5.3323  -5.2850
    -5.1371  -5.1018  -5.0392  -5.0075  -4.9640  -4.9436  -4.9332  -4.9082
    -4.8640  -4.6835  -3.8667  -3.8334  -3.3043  -3.2910  -2.8849  -2.8814
    -2.8450  -2.8432  -2.8326  -2.8259  -2.8086  -2.8059  -2.7896  -2.7861
    -2.7786  -2.7755  -0.7911  -0.7380  -0.7350  -0.6985  -0.6864  -0.6419
    -0.6090  -0.5526  -0.4678  -0.4413  -0.3539  -0.3005  -0.1217  -0.0522
     0.1349   0.1769   0.2687   0.2792   0.3582   0.3852   0.4076   0.4279
     0.4292   0.4382   0.4777   0.5078   0.5289   0.5591   0.7715   0.7995
     0.8123   0.8332   0.8682   0.8863   0.9157   0.9390   0.9732   0.9966
     1.0022   1.0151   1.0487   1.0625   1.1044   1.1138   1.1665   1.1826
     1.1934   1.1974   1.2247   1.2436   1.2618   1.2748   1.2789   1.2885
     1.3310   1.3459   1.3560   1.3593   1.3829   1.3888   1.4228   1.4369
     1.4897   1.5032   1.5238   1.5303   1.5765   1.6424   1.6588   1.6790
     1.7535   1.7555   1.8813   1.9481

          k =-0.1265 0.1268-0.3771 (302958 PWs)   bands (ev):

   -17.8996 -17.8797 -17.7450 -17.7144 -17.6225 -17.6216 -17.5803 -17.5732
   -15.7539 -15.7289 -14.2452 -14.2380 -14.2327 -14.2306 -14.2263 -14.2194
   -14.2150 -14.2119 -14.2113 -14.2059 -14.2012 -14.2007 -14.2005 -14.2003
   -14.1983 -14.1938 -14.1925 -14.1904 -14.1894 -14.1888 -14.1881 -14.1875
   -14.1861 -14.1860 -14.1848 -14.1815 -14.1752 -14.1751 -14.1741 -14.1712
   -14.1666 -14.1660 -14.1629 -14.1622 -14.1614 -14.1596 -14.1586 -14.1579
   -14.1524 -14.1514 -10.6585 -10.6350 -10.5828 -10.5719 -10.5614 -10.5411
    -9.7181  -9.6927  -9.5992  -9.5521  -9.4796  -9.4260  -9.4224  -9.3818
    -9.3430  -9.3315  -9.1968  -9.1738  -9.1686  -9.1482  -9.1420  -9.1384
    -9.1181  -9.0951  -9.0781  -9.0585  -9.0408  -9.0276  -9.0003  -8.9875
    -8.9083  -8.9048  -7.7399  -7.7141  -7.1665  -7.1542  -7.1405  -7.1381
    -7.0651  -7.0555  -7.0508  -7.0347  -7.0190  -7.0064  -6.9976  -6.9803
    -6.9776  -6.9478  -5.7427  -5.5450  -5.3980  -5.3775  -5.3315  -5.2867
    -5.1362  -5.1059  -5.0389  -5.0070  -4.9631  -4.9430  -4.9322  -4.9075
    -4.8629  -4.6843  -3.8667  -3.8335  -3.3042  -3.2909  -2.8848  -2.8815
    -2.8448  -2.8426  -2.8336  -2.8259  -2.8082  -2.8068  -2.7905  -2.7854
    -2.7783  -2.7749  -0.8170  -0.7633  -0.7115  -0.6945  -0.6638  -0.6374
    -0.6101  -0.5479  -0.4746  -0.4272  -0.3597  -0.3000  -0.1237  -0.0513
     0.1339   0.1797   0.2635   0.2759   0.3631   0.3754   0.4137   0.4164
     0.4270   0.4461   0.4832   0.5017   0.5321   0.5651   0.7558   0.7772
     0.8286   0.8334   0.8567   0.8882   0.9301   0.9521   0.9605   0.9679
     0.9874   1.0290   1.0488   1.0668   1.1331   1.1369   1.1691   1.1883
     1.1898   1.2166   1.2197   1.2367   1.2504   1.2629   1.2857   1.2918
     1.3195   1.3225   1.3550   1.3696   1.3857   1.3916   1.4229   1.4497
     1.4889   1.5032   1.5270   1.5320   1.5693   1.6346   1.6555   1.6771
     1.7418   1.7490   1.9016   1.9621

          k = 0.1265-0.1268-0.3771 (302958 PWs)   bands (ev):

   -17.8996 -17.8797 -17.7450 -17.7144 -17.6225 -17.6216 -17.5803 -17.5732
   -15.7539 -15.7289 -14.2452 -14.2380 -14.2327 -14.2306 -14.2263 -14.2194
   -14.2150 -14.2119 -14.2113 -14.2059 -14.2012 -14.2007 -14.2005 -14.2003
   -14.1983 -14.1938 -14.1925 -14.1904 -14.1894 -14.1888 -14.1881 -14.1875
   -14.1861 -14.1860 -14.1848 -14.1815 -14.1752 -14.1751 -14.1741 -14.1712
   -14.1666 -14.1660 -14.1629 -14.1622 -14.1614 -14.1596 -14.1586 -14.1579
   -14.1524 -14.1514 -10.6585 -10.6350 -10.5828 -10.5719 -10.5614 -10.5411
    -9.7177  -9.6929  -9.5998  -9.5518  -9.4800  -9.4258  -9.4218  -9.3820
    -9.3415  -9.3328  -9.1986  -9.1755  -9.1582  -9.1524  -9.1439  -9.1386
    -9.1179  -9.0974  -9.0803  -9.0560  -9.0410  -9.0251  -9.0006  -8.9883
    -8.9089  -8.9044  -7.7399  -7.7141  -7.1665  -7.1542  -7.1405  -7.1381
    -7.0653  -7.0555  -7.0507  -7.0347  -7.0189  -7.0064  -6.9975  -6.9801
    -6.9777  -6.9479  -5.7424  -5.5457  -5.3978  -5.3774  -5.3313  -5.2866
    -5.1371  -5.1057  -5.0389  -5.0072  -4.9628  -4.9429  -4.9321  -4.9074
    -4.8630  -4.6842  -3.8667  -3.8335  -3.3043  -3.2910  -2.8861  -2.8819
    -2.8469  -2.8394  -2.8304  -2.8282  -2.8083  -2.8067  -2.7897  -2.7861
    -2.7784  -2.7753  -0.8210  -0.7628  -0.7106  -0.6996  -0.6579  -0.6398
    -0.6064  -0.5507  -0.4707  -0.4340  -0.3529  -0.2962  -0.1187  -0.0536
     0.1295   0.1771   0.2626   0.2771   0.3641   0.3726   0.4134   0.4208
     0.4258   0.4409   0.4853   0.5012   0.5225   0.5694   0.7590   0.7760
     0.8346   0.8370   0.8578   0.8903   0.9304   0.9432   0.9682   0.9798
     0.9816   1.0226   1.0384   1.0654   1.1235   1.1399   1.1727   1.1846
     1.1962   1.2087   1.2273   1.2440   1.2543   1.2577   1.2856   1.2911
     1.3280   1.3300   1.3475   1.3600   1.3827   1.3933   1.4201   1.4527
     1.4903   1.5042   1.5248   1.5310   1.5718   1.6378   1.6490   1.6810
     1.7438   1.7482   1.9006   1.9633

          k =-0.1265-0.3805 0.1257 (302877 PWs)   bands (ev):

   -17.8996 -17.8797 -17.7450 -17.7144 -17.6224 -17.6217 -17.5803 -17.5732
   -15.7539 -15.7289 -14.2469 -14.2404 -14.2308 -14.2280 -14.2259 -14.2191
   -14.2149 -14.2121 -14.2110 -14.2086 -14.2014 -14.2005 -14.1999 -14.1984
   -14.1983 -14.1944 -14.1925 -14.1904 -14.1893 -14.1891 -14.1885 -14.1875
   -14.1861 -14.1860 -14.1848 -14.1815 -14.1752 -14.1751 -14.1741 -14.1712
   -14.1666 -14.1660 -14.1629 -14.1622 -14.1614 -14.1596 -14.1586 -14.1579
   -14.1524 -14.1514 -10.6583 -10.6349 -10.5819 -10.5731 -10.5609 -10.5420
    -9.7204  -9.6983  -9.5915  -9.5462  -9.4786  -9.4220  -9.4162  -9.3701
    -9.3218  -9.3164  -9.2430  -9.2334  -9.1843  -9.1822  -9.1263  -9.1242
    -9.1078  -9.0975  -9.0813  -9.0717  -9.0107  -8.9941  -8.9900  -8.9567
    -8.9267  -8.9217  -7.7394  -7.7136  -7.1665  -7.1560  -7.1431  -7.1382
    -7.0652  -7.0567  -7.0503  -7.0316  -7.0182  -7.0056  -6.9982  -6.9811
    -6.9775  -6.9477  -5.7515  -5.5713  -5.4011  -5.3804  -5.3242  -5.2663
    -5.1531  -5.0964  -5.0403  -5.0076  -4.9552  -4.9508  -4.9203  -4.9151
    -4.8336  -4.6649  -3.8665  -3.8333  -3.3044  -3.2911  -2.8842  -2.8814
    -2.8439  -2.8425  -2.8310  -2.8234  -2.8033  -2.8006  -2.7953  -2.7911
    -2.7834  -2.7800  -0.9094  -0.8953  -0.7910  -0.7629  -0.7245  -0.6907
    -0.6269  -0.5714  -0.4246  -0.3313  -0.2758  -0.2136  -0.0707  -0.0549
     0.1091   0.2144   0.2647   0.3077   0.3202   0.3548   0.3691   0.4232
     0.4552   0.4818   0.5149   0.5332   0.6230   0.6983   0.7309   0.7676
     0.7914   0.8027   0.9011   0.9088   0.9313   0.9586   0.9774   0.9966
     0.9997   1.0291   1.0502   1.0642   1.0904   1.0936   1.1444   1.1588
     1.1778   1.1946   1.2099   1.2571   1.2605   1.2730   1.2885   1.2997
     1.3175   1.3210   1.3358   1.3624   1.4000   1.4188   1.4512   1.4690
     1.4846   1.4933   1.5135   1.5767   1.6123   1.6630   1.6669   1.6999
     1.7298   1.7387   1.8998   1.9606

          k =-0.1265 0.3805-0.1257 (302877 PWs)   bands (ev):

   -17.8996 -17.8797 -17.7450 -17.7144 -17.6224 -17.6217 -17.5803 -17.5732
   -15.7539 -15.7289 -14.2469 -14.2404 -14.2308 -14.2280 -14.2259 -14.2191
   -14.2149 -14.2121 -14.2110 -14.2086 -14.2014 -14.2005 -14.1999 -14.1984
   -14.1983 -14.1944 -14.1925 -14.1904 -14.1893 -14.1891 -14.1885 -14.1875
   -14.1861 -14.1860 -14.1848 -14.1815 -14.1752 -14.1751 -14.1741 -14.1712
   -14.1666 -14.1660 -14.1629 -14.1622 -14.1614 -14.1596 -14.1586 -14.1579
   -14.1524 -14.1514 -10.6585 -10.6350 -10.5820 -10.5728 -10.5609 -10.5417
    -9.7236  -9.6972  -9.5915  -9.5445  -9.4675  -9.4330  -9.4170  -9.3662
    -9.3281  -9.3121  -9.2461  -9.2352  -9.1945  -9.1683  -9.1289  -9.1164
    -9.1099  -9.0944  -9.0837  -9.0716  -9.0115  -8.9978  -8.9926  -8.9574
    -8.9267  -8.9173  -7.7394  -7.7136  -7.1665  -7.1559  -7.1431  -7.1382
    -7.0651  -7.0568  -7.0502  -7.0317  -7.0182  -7.0056  -6.9982  -6.9811
    -6.9774  -6.9477  -5.7522  -5.5700  -5.4012  -5.3806  -5.3254  -5.2655
    -5.1526  -5.1000  -5.0404  -5.0083  -4.9536  -4.9505  -4.9200  -4.9136
    -4.8319  -4.6660  -3.8666  -3.8333  -3.3044  -3.2911  -2.8849  -2.8809
    -2.8434  -2.8420  -2.8324  -2.8233  -2.8039  -2.8018  -2.7949  -2.7902
    -2.7834  -2.7792  -0.9194  -0.8861  -0.7872  -0.7679  -0.7417  -0.6842
    -0.6371  -0.5662  -0.4098  -0.3184  -0.2634  -0.2092  -0.0705  -0.0549
     0.1033   0.1919   0.2715   0.2870   0.3349   0.3512   0.3675   0.4089
     0.4743   0.4754   0.5038   0.5493   0.6199   0.6857   0.7106   0.7541
     0.8036   0.8145   0.8975   0.9134   0.9499   0.9509   0.9806   0.9898
     1.0142   1.0398   1.0498   1.0678   1.0876   1.0914   1.1538   1.1680
     1.1725   1.1923   1.2277   1.2413   1.2479   1.2700   1.2839   1.2988
     1.3172   1.3234   1.3517   1.3755   1.3879   1.4039   1.4296   1.4640
     1.4942   1.5038   1.5429   1.5631   1.5782   1.6633   1.6726   1.7075
     1.7246   1.7531   1.8916   1.9762

          k = 0.1265-0.3805-0.1257 (302877 PWs)   bands (ev):

   -17.8996 -17.8797 -17.7450 -17.7144 -17.6224 -17.6217 -17.5803 -17.5732
   -15.7539 -15.7289 -14.2469 -14.2404 -14.2308 -14.2280 -14.2259 -14.2191
   -14.2149 -14.2121 -14.2110 -14.2086 -14.2014 -14.2005 -14.1999 -14.1984
   -14.1983 -14.1944 -14.1925 -14.1904 -14.1893 -14.1891 -14.1885 -14.1875
   -14.1861 -14.1860 -14.1848 -14.1815 -14.1752 -14.1751 -14.1741 -14.1712
   -14.1666 -14.1660 -14.1629 -14.1622 -14.1614 -14.1596 -14.1586 -14.1579
   -14.1524 -14.1514 -10.6585 -10.6350 -10.5820 -10.5729 -10.5609 -10.5417
    -9.7235  -9.6971  -9.5922  -9.5440  -9.4674  -9.4330  -9.4149  -9.3694
    -9.3320  -9.3078  -9.2471  -9.2305  -9.1948  -9.1706  -9.1282  -9.1193
    -9.1095  -9.0951  -9.0845  -9.0687  -9.0117  -8.9973  -8.9927  -8.9567
    -8.9286  -8.9163  -7.7394  -7.7136  -7.1665  -7.1559  -7.1431  -7.1382
    -7.0652  -7.0569  -7.0502  -7.0316  -7.0182  -7.0056  -6.9981  -6.9809
    -6.9775  -6.9477  -5.7519  -5.5706  -5.4010  -5.3805  -5.3248  -5.2654
    -5.1534  -5.0996  -5.0409  -5.0089  -4.9534  -4.9506  -4.9203  -4.9133
    -4.8308  -4.6662  -3.8666  -3.8333  -3.3044  -3.2911  -2.8860  -2.8816
    -2.8463  -2.8376  -2.8284  -2.8268  -2.8031  -2.8016  -2.7949  -2.7905
    -2.7838  -2.7794  -0.9204  -0.8828  -0.7920  -0.7817  -0.7289  -0.6835
    -0.6363  -0.5678  -0.4067  -0.3147  -0.2614  -0.2081  -0.0684  -0.0551
     0.0983   0.1901   0.2633   0.2820   0.3420   0.3535   0.3696   0.4143
     0.4668   0.4776   0.5033   0.5479   0.6123   0.6897   0.7150   0.7597
     0.7917   0.8150   0.9001   0.9196   0.9569   0.9655   0.9796   0.9835
     1.0042   1.0344   1.0438   1.0715   1.0832   1.0881   1.1385   1.1727
     1.1799   1.2065   1.2328   1.2433   1.2503   1.2701   1.2791   1.2938
     1.3225   1.3252   1.3442   1.3663   1.3899   1.4120   1.4317   1.4641
     1.4924   1.4958   1.5464   1.5643   1.5742   1.6657   1.6679   1.7175
     1.7213   1.7559   1.8893   1.9770

          k =-0.1265-0.3805 0.3771 (302883 PWs)   bands (ev):

   -17.8996 -17.8797 -17.7450 -17.7144 -17.6224 -17.6217 -17.5803 -17.5732
   -15.7539 -15.7289 -14.2451 -14.2380 -14.2325 -14.2305 -14.2259 -14.2189
   -14.2138 -14.2117 -14.2110 -14.2064 -14.2014 -14.2014 -14.2009 -14.2005
   -14.1983 -14.1944 -14.1925 -14.1904 -14.1893 -14.1891 -14.1885 -14.1875
   -14.1861 -14.1860 -14.1848 -14.1815 -14.1752 -14.1751 -14.1741 -14.1712
   -14.1666 -14.1660 -14.1629 -14.1622 -14.1614 -14.1596 -14.1586 -14.1579
   -14.1524 -14.1514 -10.6582 -10.6347 -10.5819 -10.5733 -10.5609 -10.5421
    -9.7141  -9.6903  -9.5738  -9.5479  -9.4781  -9.4434  -9.4386  -9.4100
    -9.3586  -9.3436  -9.1919  -9.1800  -9.1475  -9.1454  -9.1343  -9.1195
    -9.1119  -9.0985  -9.0706  -9.0678  -9.0395  -9.0199  -8.9847  -8.9651
    -8.9308  -8.9273  -7.7396  -7.7139  -7.1665  -7.1542  -7.1407  -7.1379
    -7.0652  -7.0555  -7.0507  -7.0348  -7.0186  -7.0066  -6.9975  -6.9801
    -6.9778  -6.9479  -5.6274  -5.4550  -5.4377  -5.3933  -5.3660  -5.2487
    -5.2081  -5.0684  -5.0310  -5.0224  -4.9920  -4.9559  -4.9379  -4.9153
    -4.9007  -4.8103  -3.8666  -3.8334  -3.3043  -3.2910  -2.8840  -2.8817
    -2.8472  -2.8387  -2.8350  -2.8229  -2.8056  -2.8024  -2.7938  -2.7888
    -2.7788  -2.7765  -0.7145  -0.6979  -0.6431  -0.6153  -0.5342  -0.4944
    -0.4257  -0.3775  -0.3547  -0.3296  -0.2555  -0.2335  -0.0823  -0.0622
     0.0862   0.1320   0.1896   0.2319   0.2392   0.2736   0.2937   0.3400
     0.4013   0.4169   0.4620   0.4640   0.5968   0.6035   0.6638   0.6847
     0.7282   0.7385   0.7902   0.7969   0.8072   0.8176   0.9171   0.9422
     0.9534   0.9675   1.0310   1.0480   1.0725   1.0810   1.1608   1.1715
     1.2307   1.2377   1.2545   1.2685   1.2710   1.2801   1.2939   1.3213
     1.3341   1.3364   1.3721   1.3765   1.3950   1.4059   1.4138   1.4349
     1.4719   1.4895   1.5052   1.5193   1.5680   1.5945   1.6462   1.6538
     1.7104   1.7138   1.7400   1.7582

          k =-0.1265 0.3805-0.3771 (302883 PWs)   bands (ev):

   -17.8996 -17.8797 -17.7450 -17.7144 -17.6224 -17.6217 -17.5803 -17.5732
   -15.7539 -15.7289 -14.2451 -14.2380 -14.2325 -14.2305 -14.2259 -14.2189
   -14.2138 -14.2117 -14.2110 -14.2064 -14.2014 -14.2014 -14.2009 -14.2005
   -14.1983 -14.1944 -14.1925 -14.1904 -14.1894 -14.1891 -14.1885 -14.1875
   -14.1861 -14.1860 -14.1848 -14.1815 -14.1752 -14.1751 -14.1741 -14.1712
   -14.1666 -14.1660 -14.1629 -14.1622 -14.1614 -14.1596 -14.1586 -14.1579
   -14.1524 -14.1514 -10.6583 -10.6348 -10.5819 -10.5730 -10.5609 -10.5418
    -9.7154  -9.6910  -9.5745  -9.5467  -9.4765  -9.4410  -9.4319  -9.4152
    -9.3579  -9.3486  -9.1913  -9.1829  -9.1481  -9.1449  -9.1298  -9.1231
    -9.1099  -9.0953  -9.0775  -9.0645  -9.0372  -9.0185  -8.9901  -8.9699
    -8.9279  -8.9235  -7.7396  -7.7138  -7.1666  -7.1541  -7.1407  -7.1379
    -7.0652  -7.0554  -7.0506  -7.0349  -7.0186  -7.0067  -6.9974  -6.9802
    -6.9777  -6.9479  -5.6275  -5.4542  -5.4373  -5.3936  -5.3664  -5.2498
    -5.2105  -5.0680  -5.0315  -5.0228  -4.9900  -4.9549  -4.9372  -4.9141
    -4.8999  -4.8121  -3.8667  -3.8334  -3.3043  -3.2910  -2.8840  -2.8817
    -2.8465  -2.8390  -2.8355  -2.8230  -2.8056  -2.8034  -2.7939  -2.7887
    -2.7786  -2.7758  -0.7329  -0.7044  -0.6431  -0.6102  -0.5285  -0.4886
    -0.4270  -0.3732  -0.3352  -0.3263  -0.2562  -0.2248  -0.0834  -0.0626
     0.0849   0.1275   0.1887   0.2130   0.2383   0.2597   0.2935   0.3391
     0.4027   0.4221   0.4624   0.4746   0.6032   0.6067   0.6498   0.6778
     0.7303   0.7366   0.7685   0.8039   0.8061   0.8213   0.9150   0.9250
     0.9577   0.9616   1.0484   1.0526   1.0934   1.1007   1.1616   1.1707
     1.2289   1.2333   1.2577   1.2646   1.2744   1.2886   1.2997   1.3033
     1.3269   1.3315   1.3533   1.3817   1.3899   1.4114   1.4258   1.4400
     1.4753   1.4879   1.5118   1.5178   1.5843   1.5951   1.6170   1.6494
     1.6806   1.6825   1.7729   1.7983

          k = 0.1265-0.3805-0.3771 (302883 PWs)   bands (ev):

   -17.8996 -17.8797 -17.7450 -17.7144 -17.6224 -17.6217 -17.5803 -17.5732
   -15.7539 -15.7289 -14.2451 -14.2380 -14.2325 -14.2305 -14.2259 -14.2189
   -14.2138 -14.2117 -14.2110 -14.2064 -14.2014 -14.2014 -14.2009 -14.2005
   -14.1983 -14.1944 -14.1925 -14.1904 -14.1894 -14.1891 -14.1885 -14.1875
   -14.1861 -14.1860 -14.1848 -14.1815 -14.1752 -14.1751 -14.1741 -14.1712
   -14.1666 -14.1660 -14.1629 -14.1622 -14.1614 -14.1596 -14.1586 -14.1579
   -14.1524 -14.1514 -10.6584 -10.6348 -10.5819 -10.5730 -10.5609 -10.5418
    -9.7153  -9.6910  -9.5765  -9.5448  -9.4738  -9.4439  -9.4340  -9.4138
    -9.3558  -9.3505  -9.1909  -9.1798  -9.1483  -9.1457  -9.1304  -9.1245
    -9.1080  -9.1004  -9.0781  -9.0621  -9.0342  -9.0206  -8.9892  -8.9695
    -8.9308  -8.9214  -7.7396  -7.7138  -7.1666  -7.1541  -7.1407  -7.1379
    -7.0653  -7.0555  -7.0506  -7.0348  -7.0186  -7.0067  -6.9973  -6.9801
    -6.9778  -6.9479  -5.6264  -5.4651  -5.4265  -5.3939  -5.3672  -5.2494
    -5.2083  -5.0729  -5.0375  -5.0218  -4.9835  -4.9547  -4.9368  -4.9126
    -4.8999  -4.8133  -3.8667  -3.8334  -3.3043  -3.2910  -2.8854  -2.8822
    -2.8475  -2.8367  -2.8336  -2.8241  -2.8054  -2.8035  -2.7936  -2.7888
    -2.7784  -2.7764  -0.7397  -0.6926  -0.6500  -0.6085  -0.5396  -0.4908
    -0.4338  -0.3781  -0.3270  -0.3093  -0.2472  -0.2156  -0.0741  -0.0607
     0.0733   0.1099   0.1817   0.1975   0.2214   0.2735   0.2974   0.3602
     0.4016   0.4204   0.4661   0.4745   0.5854   0.6210   0.6502   0.6658
     0.7357   0.7487   0.7777   0.7949   0.8106   0.8200   0.9093   0.9325
     0.9533   0.9621   1.0354   1.0546   1.0887   1.0983   1.1627   1.1736
     1.2324   1.2462   1.2594   1.2618   1.2788   1.2844   1.3040   1.3144
     1.3214   1.3257   1.3597   1.3644   1.3873   1.4120   1.4296   1.4379
     1.4700   1.4903   1.5109   1.5201   1.5840   1.5943   1.6180   1.6488
     1.6779   1.6949   1.7635   1.8022

          k =-0.3795-0.1268 0.1257 (302873 PWs)   bands (ev):

   -17.8996 -17.8797 -17.7450 -17.7144 -17.6225 -17.6216 -17.5803 -17.5732
   -15.7539 -15.7289 -14.2469 -14.2404 -14.2309 -14.2280 -14.2259 -14.2185
   -14.2160 -14.2118 -14.2116 -14.2083 -14.2011 -14.2005 -14.1997 -14.1984
   -14.1983 -14.1940 -14.1925 -14.1904 -14.1894 -14.1892 -14.1886 -14.1875
   -14.1861 -14.1860 -14.1848 -14.1815 -14.1752 -14.1751 -14.1741 -14.1712
   -14.1666 -14.1660 -14.1629 -14.1622 -14.1614 -14.1596 -14.1586 -14.1579
   -14.1524 -14.1514 -10.6583 -10.6349 -10.5827 -10.5725 -10.5614 -10.5418
    -9.7119  -9.6884  -9.6052  -9.5657  -9.4712  -9.4179  -9.4114  -9.3685
    -9.3254  -9.3139  -9.2423  -9.2257  -9.1873  -9.1846  -9.1518  -9.1424
    -9.1105  -9.0956  -9.0569  -9.0521  -9.0051  -8.9876  -8.9838  -8.9551
    -8.9382  -8.9330  -7.7400  -7.7142  -7.1665  -7.1561  -7.1431  -7.1384
    -7.0648  -7.0568  -7.0506  -7.0312  -7.0187  -7.0051  -6.9981  -6.9815
    -6.9770  -6.9477  -5.7545  -5.5795  -5.4006  -5.3796  -5.3138  -5.2715
    -5.1485  -5.1045  -5.0398  -5.0069  -4.9595  -4.9442  -4.9273  -4.9071
    -4.8269  -4.6607  -3.8670  -3.8337  -3.3044  -3.2911  -2.8874  -2.8846
    -2.8395  -2.8356  -2.8268  -2.8204  -2.8124  -2.8042  -2.7952  -2.7911
    -2.7840  -2.7788  -0.9195  -0.9055  -0.7865  -0.7840  -0.7344  -0.7275
    -0.6345  -0.6020  -0.3953  -0.3394  -0.2813  -0.1960  -0.0835  -0.0050
     0.1262   0.2352   0.2537   0.2670   0.3386   0.3963   0.3990   0.4479
     0.4915   0.4985   0.5425   0.5849   0.6295   0.6647   0.7085   0.7412
     0.7655   0.8075   0.8929   0.8992   0.9205   0.9559   0.9589   0.9884
     1.0249   1.0266   1.0570   1.0619   1.0777   1.1028   1.1260   1.1310
     1.1900   1.2012   1.2129   1.2306   1.2466   1.2627   1.2859   1.2903
     1.3071   1.3135   1.3504   1.3618   1.3915   1.4291   1.4438   1.4789
     1.4897   1.5012   1.5296   1.5718   1.6046   1.6338   1.6862   1.7246
     1.7371   1.7650   1.8814   1.9524

          k =-0.3795 0.1268-0.1257 (302873 PWs)   bands (ev):

   -17.8996 -17.8797 -17.7450 -17.7144 -17.6225 -17.6216 -17.5803 -17.5732
   -15.7539 -15.7289 -14.2469 -14.2404 -14.2309 -14.2280 -14.2259 -14.2185
   -14.2160 -14.2118 -14.2116 -14.2083 -14.2011 -14.2005 -14.1997 -14.1984
   -14.1983 -14.1940 -14.1925 -14.1904 -14.1895 -14.1892 -14.1886 -14.1875
   -14.1861 -14.1860 -14.1848 -14.1815 -14.1752 -14.1751 -14.1741 -14.1712
   -14.1666 -14.1660 -14.1629 -14.1622 -14.1614 -14.1596 -14.1586 -14.1579
   -14.1524 -14.1514 -10.6585 -10.6350 -10.5827 -10.5723 -10.5613 -10.5416
    -9.7152  -9.6879  -9.6061  -9.5609  -9.4628  -9.4279  -9.4107  -9.3664
    -9.3304  -9.3138  -9.2372  -9.2302  -9.1984  -9.1722  -9.1527  -9.1407
    -9.1115  -9.0887  -9.0584  -9.0536  -9.0080  -8.9899  -8.9837  -8.9620
    -8.9351  -8.9272  -7.7400  -7.7142  -7.1666  -7.1561  -7.1431  -7.1384
    -7.0646  -7.0570  -7.0506  -7.0313  -7.0187  -7.0051  -6.9981  -6.9815
    -6.9770  -6.9477  -5.7552  -5.5785  -5.4006  -5.3797  -5.3144  -5.2709
    -5.1486  -5.1068  -5.0403  -5.0079  -4.9592  -4.9436  -4.9269  -4.9062
    -4.8233  -4.6623  -3.8670  -3.8338  -3.3044  -3.2911  -2.8880  -2.8842
    -2.8393  -2.8339  -2.8289  -2.8205  -2.8121  -2.8061  -2.7949  -2.7899
    -2.7839  -2.7784  -0.9278  -0.8977  -0.7998  -0.7813  -0.7393  -0.7215
    -0.6447  -0.5968  -0.3812  -0.3301  -0.2708  -0.1886  -0.0873  -0.0027
     0.1240   0.2134   0.2492   0.2721   0.3346   0.3828   0.4072   0.4322
     0.4873   0.5190   0.5478   0.5915   0.6229   0.6527   0.7050   0.7246
     0.7648   0.7966   0.8933   0.9303   0.9354   0.9456   0.9802   0.9853
     1.0124   1.0234   1.0651   1.0714   1.0888   1.0963   1.1235   1.1471
     1.1584   1.2102   1.2148   1.2320   1.2359   1.2705   1.2744   1.3020
     1.3058   1.3089   1.3420   1.3671   1.3927   1.4278   1.4540   1.4709
     1.4908   1.5019   1.5460   1.5491   1.5829   1.6513   1.6832   1.7270
     1.7312   1.7796   1.8721   1.9675

          k = 0.3795-0.1268-0.1257 (302873 PWs)   bands (ev):

   -17.8996 -17.8797 -17.7450 -17.7144 -17.6225 -17.6216 -17.5803 -17.5732
   -15.7539 -15.7289 -14.2469 -14.2404 -14.2309 -14.2280 -14.2259 -14.2185
   -14.2160 -14.2118 -14.2116 -14.2083 -14.2011 -14.2005 -14.1997 -14.1984
   -14.1983 -14.1940 -14.1925 -14.1904 -14.1895 -14.1892 -14.1886 -14.1875
   -14.1861 -14.1860 -14.1848 -14.1815 -14.1752 -14.1751 -14.1741 -14.1712
   -14.1666 -14.1660 -14.1629 -14.1622 -14.1614 -14.1596 -14.1586 -14.1579
   -14.1524 -14.1514 -10.6585 -10.6350 -10.5827 -10.5723 -10.5613 -10.5416
    -9.7147  -9.6880  -9.6062  -9.5618  -9.4638  -9.4264  -9.4100  -9.3660
    -9.3326  -9.3119  -9.2412  -9.2248  -9.1999  -9.1730  -9.1517  -9.1416
    -9.1123  -9.0880  -9.0583  -9.0539  -9.0063  -8.9906  -8.9846  -8.9612
    -8.9361  -8.9266  -7.7400  -7.7142  -7.1666  -7.1561  -7.1431  -7.1384
    -7.0647  -7.0571  -7.0506  -7.0312  -7.0187  -7.0051  -6.9980  -6.9814
    -6.9771  -6.9477  -5.7551  -5.5782  -5.4009  -5.3800  -5.3150  -5.2704
    -5.1487  -5.1073  -5.0400  -5.0075  -4.9589  -4.9436  -4.9267  -4.9063
    -4.8244  -4.6618  -3.8670  -3.8338  -3.3044  -3.2911  -2.8891  -2.8846
    -2.8405  -2.8332  -2.8255  -2.8205  -2.8136  -2.8048  -2.7948  -2.7907
    -2.7841  -2.7786  -0.9288  -0.8990  -0.8061  -0.7863  -0.7311  -0.7148
    -0.6441  -0.5971  -0.3833  -0.3255  -0.2751  -0.1879  -0.0841  -0.0051
     0.1259   0.2136   0.2498   0.2690   0.3341   0.3792   0.4099   0.4390
     0.4825   0.5194   0.5434   0.5862   0.6243   0.6493   0.7069   0.7209
     0.7704   0.8083   0.8965   0.9246   0.9377   0.9407   0.9735   0.9851
     1.0143   1.0220   1.0635   1.0707   1.0884   1.0981   1.1323   1.1520
     1.1578   1.2053   1.2097   1.2351   1.2434   1.2692   1.2715   1.2896
     1.3087   1.3174   1.3506   1.3675   1.3887   1.4159   1.4562   1.4717
     1.4919   1.4996   1.5448   1.5483   1.5836   1.6490   1.6870   1.7272
     1.7324   1.7749   1.8772   1.9704

          k =-0.3795-0.1268 0.3771 (302871 PWs)   bands (ev):

   -17.8996 -17.8797 -17.7450 -17.7144 -17.6225 -17.6216 -17.5803 -17.5732
   -15.7539 -15.7289 -14.2451 -14.2379 -14.2326 -14.2305 -14.2259 -14.2184
   -14.2150 -14.2114 -14.2113 -14.2062 -14.2014 -14.2010 -14.2008 -14.2004
   -14.1983 -14.1940 -14.1925 -14.1904 -14.1894 -14.1892 -14.1886 -14.1875
   -14.1861 -14.1860 -14.1848 -14.1815 -14.1752 -14.1751 -14.1741 -14.1712
   -14.1666 -14.1660 -14.1629 -14.1622 -14.1614 -14.1596 -14.1586 -14.1579
   -14.1524 -14.1514 -10.6582 -10.6346 -10.5827 -10.5727 -10.5614 -10.5419
    -9.7081  -9.6831  -9.5775  -9.5342  -9.5208  -9.4675  -9.4164  -9.3890
    -9.3546  -9.3417  -9.1971  -9.1811  -9.1640  -9.1554  -9.1374  -9.1344
    -9.0952  -9.0838  -9.0623  -9.0571  -9.0318  -9.0140  -8.9846  -8.9671
    -8.9395  -8.9343  -7.7403  -7.7145  -7.1666  -7.1542  -7.1405  -7.1382
    -7.0647  -7.0551  -7.0513  -7.0343  -7.0192  -7.0059  -6.9977  -6.9803
    -6.9776  -6.9479  -5.6291  -5.4571  -5.4374  -5.3955  -5.3744  -5.2599
    -5.1974  -5.0646  -5.0332  -5.0193  -4.9804  -4.9539  -4.9429  -4.9111
    -4.9007  -4.8062  -3.8670  -3.8338  -3.3043  -3.2910  -2.8843  -2.8819
    -2.8412  -2.8381  -2.8303  -2.8252  -2.8122  -2.8082  -2.7892  -2.7859
    -2.7818  -2.7775  -0.7646  -0.7254  -0.7037  -0.6705  -0.4915  -0.4718
    -0.4219  -0.3738  -0.3246  -0.3226  -0.2156  -0.2099  -0.0944  -0.0769
     0.1247   0.1563   0.1958   0.2120   0.2523   0.2875   0.3234   0.3389
     0.3644   0.4000   0.4551   0.4721   0.5841   0.6118   0.6854   0.7098
     0.7490   0.7552   0.8228   0.8281   0.8516   0.8696   0.8850   0.8988
     0.9502   0.9623   1.0009   1.0096   1.0429   1.0757   1.1294   1.1818
     1.1955   1.2100   1.2283   1.2512   1.2745   1.2859   1.3093   1.3152
     1.3360   1.3500   1.3704   1.3794   1.3856   1.4030   1.4306   1.4365
     1.4594   1.4999   1.5139   1.5160   1.5633   1.5948   1.6290   1.6320
     1.6942   1.7112   1.7829   1.8080

          k =-0.3795 0.1268-0.3771 (302871 PWs)   bands (ev):

   -17.8996 -17.8797 -17.7450 -17.7144 -17.6225 -17.6216 -17.5803 -17.5732
   -15.7539 -15.7289 -14.2451 -14.2379 -14.2326 -14.2305 -14.2259 -14.2184
   -14.2150 -14.2114 -14.2113 -14.2062 -14.2014 -14.2010 -14.2008 -14.2004
   -14.1983 -14.1940 -14.1925 -14.1904 -14.1895 -14.1892 -14.1886 -14.1875
   -14.1861 -14.1860 -14.1848 -14.1815 -14.1752 -14.1751 -14.1741 -14.1712
   -14.1666 -14.1660 -14.1629 -14.1622 -14.1614 -14.1596 -14.1586 -14.1579
   -14.1524 -14.1514 -10.6583 -10.6348 -10.5828 -10.5725 -10.5614 -10.5417
    -9.7094  -9.6840  -9.5802  -9.5283  -9.5192  -9.4681  -9.4115  -9.3927
    -9.3544  -9.3461  -9.1934  -9.1852  -9.1659  -9.1535  -9.1373  -9.1336
    -9.0957  -9.0796  -9.0658  -9.0562  -9.0317  -9.0082  -8.9899  -8.9781
    -8.9344  -8.9297  -7.7403  -7.7145  -7.1667  -7.1543  -7.1405  -7.1382
    -7.0646  -7.0552  -7.0513  -7.0343  -7.0193  -7.0059  -6.9976  -6.9804
    -6.9775  -6.9479  -5.6291  -5.4588  -5.4339  -5.3963  -5.3753  -5.2602
    -5.1983  -5.0684  -5.0342  -5.0195  -4.9788  -4.9513  -4.9419  -4.9094
    -4.8977  -4.8096  -3.8671  -3.8338  -3.3043  -3.2910  -2.8842  -2.8821
    -2.8406  -2.8379  -2.8310  -2.8254  -2.8114  -2.8100  -2.7904  -2.7843
    -2.7821  -2.7769  -0.7761  -0.7258  -0.7141  -0.6641  -0.4982  -0.4633
    -0.4054  -0.3704  -0.3189  -0.3176  -0.2153  -0.2012  -0.1004  -0.0717
     0.1117   0.1560   0.1881   0.2229   0.2399   0.2615   0.3306   0.3418
     0.3740   0.3895   0.4657   0.4726   0.5992   0.6055   0.6855   0.6984
     0.7433   0.7779   0.7933   0.8261   0.8452   0.8461   0.8987   0.9036
     0.9384   0.9568   0.9979   1.0010   1.0897   1.1078   1.1370   1.1721
     1.1982   1.2095   1.2394   1.2541   1.2714   1.2737   1.3025   1.3158
     1.3342   1.3473   1.3621   1.3740   1.3931   1.3985   1.4226   1.4487
     1.4698   1.4931   1.5171   1.5207   1.5605   1.5876   1.6103   1.6291
     1.6875   1.7125   1.8019   1.8203

          k = 0.3795-0.1268-0.3771 (302871 PWs)   bands (ev):

   -17.8996 -17.8797 -17.7450 -17.7144 -17.6225 -17.6216 -17.5803 -17.5732
   -15.7539 -15.7289 -14.2451 -14.2379 -14.2326 -14.2305 -14.2259 -14.2184
   -14.2150 -14.2114 -14.2113 -14.2062 -14.2014 -14.2010 -14.2008 -14.2004
   -14.1983 -14.1940 -14.1925 -14.1904 -14.1895 -14.1892 -14.1886 -14.1875
   -14.1861 -14.1860 -14.1848 -14.1815 -14.1752 -14.1751 -14.1741 -14.1712
   -14.1666 -14.1660 -14.1629 -14.1622 -14.1614 -14.1596 -14.1586 -14.1579
   -14.1524 -14.1514 -10.6583 -10.6348 -10.5828 -10.5724 -10.5614 -10.5417
    -9.7090  -9.6840  -9.5800  -9.5291  -9.5224  -9.4638  -9.4103  -9.3940
    -9.3536  -9.3476  -9.1958  -9.1814  -9.1617  -9.1570  -9.1410  -9.1314
    -9.0979  -9.0822  -9.0653  -9.0515  -9.0303  -9.0110  -8.9909  -8.9762
    -8.9356  -8.9289  -7.7403  -7.7145  -7.1667  -7.1543  -7.1405  -7.1382
    -7.0647  -7.0553  -7.0512  -7.0343  -7.0192  -7.0059  -6.9976  -6.9803
    -6.9776  -6.9479  -5.6288  -5.4560  -5.4377  -5.3958  -5.3747  -5.2613
    -5.1996  -5.0632  -5.0356  -5.0197  -4.9780  -4.9528  -4.9418  -4.9103
    -4.8994  -4.8080  -3.8671  -3.8338  -3.3043  -3.2910  -2.8856  -2.8825
    -2.8416  -2.8371  -2.8280  -2.8252  -2.8127  -2.8093  -2.7891  -2.7861
    -2.7815  -2.7773  -0.7821  -0.7331  -0.7059  -0.6632  -0.4924  -0.4540
    -0.4135  -0.3769  -0.3171  -0.3145  -0.2166  -0.1970  -0.0949  -0.0761
     0.1177   0.1555   0.1881   0.2175   0.2348   0.2589   0.3304   0.3355
     0.3796   0.3884   0.4636   0.4742   0.5959   0.6067   0.6759   0.7164
     0.7338   0.7911   0.8005   0.8128   0.8398   0.8531   0.9027   0.9114
     0.9371   0.9528   0.9915   0.9956   1.0994   1.1062   1.1400   1.1667
     1.2007   1.2063   1.2428   1.2517   1.2657   1.2688   1.3151   1.3216
     1.3369   1.3425   1.3574   1.3680   1.3899   1.3986   1.4311   1.4456
     1.4706   1.4928   1.5157   1.5190   1.5544   1.5884   1.6213   1.6240
     1.6920   1.7101   1.7976   1.8265

          k =-0.3795-0.3805 0.1257 (302840 PWs)   bands (ev):

   -17.8996 -17.8797 -17.7450 -17.7144 -17.6224 -17.6217 -17.5803 -17.5732
   -15.7539 -15.7289 -14.2468 -14.2403 -14.2307 -14.2279 -14.2254 -14.2180
   -14.2155 -14.2114 -14.2105 -14.2089 -14.2020 -14.2005 -14.2000 -14.1986
   -14.1983 -14.1947 -14.1925 -14.1905 -14.1896 -14.1895 -14.1888 -14.1875
   -14.1861 -14.1860 -14.1848 -14.1815 -14.1752 -14.1751 -14.1741 -14.1712
   -14.1666 -14.1660 -14.1629 -14.1622 -14.1614 -14.1596 -14.1586 -14.1579
[...]
     0.3653   0.3991   0.4395   0.4423   0.6485   0.6773   0.6996   0.7035
     0.7477   0.7579   0.7905   0.8263   0.8357   0.8664   0.8927   0.9239
     0.9327   0.9734   1.0066   1.0147   1.0841   1.1090   1.1217   1.1298
     1.1428   1.1714   1.2161   1.2258   1.2741   1.2809   1.3203   1.3425
     1.3492   1.3619   1.3769   1.3926   1.4309   1.4319   1.4522   1.4815
     1.5032   1.5272   1.5587   1.5825   1.6565   1.6675   1.6751   1.6853
     1.7220   1.7400   1.8187   1.8304

          k = 0.3823-0.3813-0.3758 (302825 PWs)   bands (ev):

   -17.8343 -17.8292 -17.6254 -17.6121 -17.5617 -17.5507 -17.5344 -17.4597
   -15.7074 -15.7050 -14.1979 -14.1962 -14.1918 -14.1917 -14.1788 -14.1776
   -14.1757 -14.1751 -14.1735 -14.1727 -14.1726 -14.1713 -14.1626 -14.1606
   -14.1602 -14.1593 -14.1562 -14.1536 -14.1535 -14.1521 -14.1506 -14.1497
   -14.1492 -14.1471 -14.1422 -14.1404 -14.1395 -14.1382 -14.1379 -14.1378
   -14.1375 -14.1374 -14.1367 -14.1351 -14.1334 -14.1323 -14.1281 -14.1260
   -14.1257 -14.1252 -10.5498 -10.5352 -10.5037 -10.4917 -10.4785 -10.4287
    -9.6889  -9.6809  -9.4988  -9.4563  -9.4413  -9.4008  -9.3900  -9.3867
    -9.3304  -9.3243  -9.1509  -9.1477  -9.1132  -9.1058  -9.1018  -9.0912
    -9.0634  -9.0593  -9.0262  -8.9838  -8.9708  -8.9575  -8.9438  -8.9302
    -8.8918  -8.8818  -7.6836  -7.6802  -7.1056  -7.0990  -7.0436  -7.0330
    -7.0189  -6.9992  -6.9872  -6.9849  -6.9690  -6.9473  -6.9421  -6.9337
    -6.9125  -6.8725  -5.4579  -5.3858  -5.3822  -5.3131  -5.2712  -5.2626
    -5.1379  -5.1198  -5.0849  -4.9564  -4.8981  -4.8809  -4.8396  -4.8247
    -4.8090  -4.7455  -3.7877  -3.7798  -3.2564  -3.2547  -2.8081  -2.8003
    -2.7881  -2.7780  -2.7734  -2.7692  -2.7636  -2.7592  -2.7405  -2.7342
    -2.7305  -2.7224  -0.5340  -0.4964  -0.4314  -0.4002  -0.3619  -0.3255
    -0.2636  -0.2582  -0.2360  -0.1949  -0.1168  -0.1107  -0.0039   0.0023
     0.0584   0.1306   0.1809   0.2015   0.2121   0.2357   0.2893   0.3270
     0.3716   0.3983   0.4324   0.4449   0.6460   0.6793   0.6968   0.6989
     0.7530   0.7548   0.7940   0.8232   0.8371   0.8658   0.8915   0.9293
     0.9365   0.9736   1.0040   1.0062   1.0853   1.1130   1.1221   1.1254
     1.1508   1.1701   1.2124   1.2263   1.2713   1.2836   1.3247   1.3403
     1.3494   1.3618   1.3790   1.3834   1.4299   1.4365   1.4507   1.4868
     1.4996   1.5265   1.5580   1.5825   1.6609   1.6639   1.6764   1.6816
     1.7324   1.7345   1.8141   1.8340

     highest occupied level (ev):     2.1585

!    total energy              =  -16545.21684141 Ry
     Harris-Foulkes estimate   =  -16545.21684141 Ry
     estimated scf accuracy    <          4.0E-09 Ry

     total all-electron energy =   -677464.483711 Ry

     The total energy is the sum of the following terms:

     one-electron contribution =    -850.22511708 Ry
     hartree contribution      =     614.98971022 Ry
     xc contribution           =    -765.68828348 Ry
     ewald contribution        =   -1173.50990659 Ry
     DFT-D3 Dispersion         =      -0.63761960 Ry
     one-center paw contrib.   =  -14370.14562487 Ry

     convergence has been achieved in  10 iterations

     Forces acting on atoms (cartesian axes, Ry/au):

     atom    1 type  1   force =    -0.00074881    0.00156079    0.00120565
     atom    2 type  1   force =    -0.00106206    0.00051037    0.00145359
     atom    3 type  1   force =     0.00068417   -0.00022834    0.00016559
     atom    4 type  1   force =     0.00053006    0.00057102    0.00036705
     atom    5 type  1   force =     0.00082432    0.00076480    0.00067615
     atom    6 type  1   force =     0.00027554   -0.00010133    0.00071193
     atom    7 type  1   force =    -0.00127979    0.00098765    0.00068817
     atom    8 type  1   force =    -0.00072341    0.00109745    0.00043150
     atom    9 type  2   force =     0.00120688   -0.00070380    0.00032831
     atom   10 type  2   force =    -0.00102263   -0.00041607    0.00043708
     atom   11 type  2   force =    -0.00119041   -0.00029237   -0.00170528
     atom   12 type  2   force =     0.00124211   -0.00128514   -0.00030249
     atom   13 type  2   force =    -0.00162945   -0.00021091    0.00065197
     atom   14 type  2   force =     0.00045458   -0.00066367   -0.00265690
     atom   15 type  2   force =    -0.00005832   -0.00041950   -0.00009331
     atom   16 type  2   force =    -0.00105761    0.00047437    0.00022721
     atom   17 type  2   force =     0.00067184   -0.00063973   -0.00085105
     atom   18 type  2   force =     0.00007418   -0.00099314    0.00056532
     atom   19 type  2   force =    -0.00066719    0.00169658    0.00026059
     atom   20 type  2   force =     0.00031803   -0.00018886    0.00000259
     atom   21 type  2   force =    -0.00051397   -0.00068937    0.00091263
     atom   22 type  2   force =    -0.00057371    0.00054506    0.00000304
     atom   23 type  2   force =     0.00016144    0.00020912   -0.00138791
     atom   24 type  2   force =     0.00062045   -0.00068454    0.00021712
     atom   25 type  2   force =    -0.00104831    0.00084481   -0.00001711
     atom   26 type  2   force =     0.00054232   -0.00071020   -0.00078564
     atom   27 type  2   force =     0.00144419   -0.00113764   -0.00018318
     atom   28 type  2   force =    -0.00152700   -0.00034405    0.00074817
     atom   29 type  2   force =     0.00044365   -0.00048769   -0.00104241
     atom   30 type  2   force =     0.00095011   -0.00065341    0.00047948
     atom   31 type  2   force =    -0.00109734   -0.00048624    0.00041753
     atom   32 type  2   force =    -0.00135157   -0.00035360   -0.00092786
     atom   33 type  3   force =    -0.00004846    0.00315759    0.00119314
     atom   34 type  3   force =     0.00083017    0.00116138    0.00195367
     atom   35 type  3   force =     0.00129663    0.00152556    0.00219606
     atom   36 type  3   force =    -0.00070682   -0.00233616    0.00071391
     atom   37 type  3   force =     0.00113432    0.00022926    0.00072712
     atom   38 type  3   force =    -0.00102216    0.00003852    0.00150122
     atom   39 type  3   force =     0.00299633    0.00279258    0.00086880
     atom   40 type  3   force =     0.01155382    0.00109210    0.00087215
     atom   41 type  4   force =     0.00169291   -0.00288385   -0.00037792
     atom   42 type  4   force =    -0.00142596    0.00066080   -0.00044744
     atom   43 type  4   force =     0.00111536   -0.00018561   -0.00151605
     atom   44 type  4   force =     0.00091810   -0.00163598   -0.00197731
     atom   45 type  4   force =     0.00049239    0.00436014   -0.00047322
     atom   46 type  4   force =    -0.00219460    0.00089800   -0.00065734
     atom   47 type  4   force =     0.00301486    0.00079861   -0.00052292
     atom   48 type  4   force =    -0.00244201   -0.00164520   -0.00067812
     atom   49 type  4   force =    -0.00528657   -0.00410784   -0.00009730
     atom   50 type  4   force =    -0.00760650    0.00587342   -0.00023234
     atom   51 type  5   force =     0.00030698    0.00108449   -0.00021566
     atom   52 type  5   force =    -0.00068782    0.00270802    0.00006596
     atom   53 type  5   force =     0.00240415   -0.00054993    0.00018019
     atom   54 type  5   force =     0.00074669    0.00094084    0.00001078
     atom   55 type  5   force =    -0.00380513   -0.00260088    0.00023903
     atom   56 type  5   force =    -0.00211507   -0.00154975   -0.00094277
     atom   57 type  5   force =    -0.00045691   -0.00297594    0.00115736
     atom   58 type  5   force =    -0.00208696    0.00195806   -0.00141090
     atom   59 type  5   force =     0.00051705   -0.00070381    0.00109201
     atom   60 type  5   force =     0.00053251    0.00098663   -0.00099683
     atom   61 type  5   force =     0.00126438    0.00249513    0.00100079
     atom   62 type  5   force =     0.00002968   -0.00248164   -0.00282083
     atom   63 type  5   force =     0.00049578   -0.00383981    0.00047616
     atom   64 type  5   force =    -0.00133666    0.00049493    0.00014296
     atom   65 type  5   force =    -0.00052612   -0.00150399   -0.00048741
     atom   66 type  5   force =     0.00124396    0.00154455   -0.00085318
     atom   67 type  5   force =    -0.00032499    0.00345391    0.00257326
     atom   68 type  5   force =     0.00270022   -0.00251886    0.00284159
     atom   69 type  5   force =     0.00121774   -0.00206163   -0.00327844
     atom   70 type  5   force =    -0.00173499    0.00035608    0.00014675
     atom   71 type  5   force =    -0.00082773    0.00221023    0.00259301
     atom   72 type  5   force =    -0.00080788    0.00235252   -0.00340982
     atom   73 type  5   force =     0.00167013   -0.00248696    0.00000789
     atom   74 type  5   force =     0.00024027   -0.00104434   -0.00082161
     atom   75 type  5   force =    -0.00060885   -0.00045121    0.00031239
     atom   76 type  5   force =     0.00078518   -0.00407244    0.00028458
     atom   77 type  5   force =     0.00109382    0.00126082   -0.00077747
     atom   78 type  5   force =     0.00168951    0.00157235    0.00020146
     atom   79 type  5   force =    -0.00015658    0.00143093    0.00003684
     atom   80 type  5   force =    -0.00138201   -0.00007311    0.00191388
     atom   81 type  5   force =     0.00370961   -0.00427560   -0.00122510
     atom   82 type  5   force =    -0.00206994   -0.00061334   -0.00192103
     atom   83 type  5   force =     0.00138410   -0.00122349    0.00043050
     atom   84 type  5   force =    -0.00290310    0.00235927   -0.00006002
     atom   85 type  5   force =     0.00113392    0.00069041   -0.00056450
     atom   86 type  5   force =    -0.00092135   -0.00337545   -0.00348063
     atom   87 type  5   force =    -0.00395380   -0.00068718    0.00057087
     atom   88 type  5   force =    -0.00054182   -0.00092153    0.00195595
     atom   89 type  5   force =    -0.00005767    0.00159709   -0.00301593
     atom   90 type  5   force =     0.00365214   -0.00084810   -0.00058166
     atom   91 type  5   force =     0.00068651    0.00420058    0.00466022
     atom   92 type  5   force =    -0.00013012    0.00284440   -0.00024374
     atom   93 type  5   force =    -0.00049998    0.00244797   -0.00001579
     atom   94 type  5   force =     0.00282034   -0.00108857    0.00009295
     atom   95 type  5   force =     0.00095964   -0.00297789   -0.00010687
     atom   96 type  5   force =    -0.00255295   -0.00142948    0.00019919

     Total force =     0.030579     Total SCF correction =     0.000183


     Computing stress (Cartesian axis) and pressure

          total   stress  (Ry/bohr**3)                   (kbar)     P=   -0.67
  -0.00000663   0.00001866   0.00000013         -0.97      2.74      0.02
   0.00001866   0.00000019   0.00000098          2.74      0.03      0.14
   0.00000013   0.00000098  -0.00000724          0.02      0.14     -1.06


     number of scf cycles    =  23
     number of bfgs steps    =  22

     enthalpy old            =  -16545.2159371183 Ry
     enthalpy new            =  -16545.2168414139 Ry

     CASE: enthalpy_new < enthalpy_old

     new trust radius        =       0.1191924469 bohr
     new conv_thr            =       0.0000000090 Ry

     new unit-cell volume =  13519.46963 a.u.^3 (  2003.37868 Ang^3 )
     density =      4.13760 g/cm^3

CELL_PARAMETERS (alat= 24.15259000)
   0.979735128   0.000000000   0.000000000
   0.000000000   0.982637065   0.000000000
   0.000000000   0.000000000   0.996705158

ATOMIC_POSITIONS (crystal)
Pb       0.009901957  -0.008187267   0.003429812
Pb       0.011003200  -0.006313642   0.499596390
Pb       0.000067578   0.493713742   0.001964746
Pb       0.000294093   0.493288025   0.502739691
Pb       0.499773243  -0.006989490   0.002924032
Pb       0.500156141  -0.005495361   0.502080283
Pb       0.511003516   0.492645022   0.000145395
Pb       0.510174811   0.492933517   0.503905194
I        0.254701376   0.070194113   0.011743945
I       -0.031425528   0.245642147  -0.022779731
I       -0.024830485   0.010377713   0.254804444
I        0.254752751   0.072824946   0.497072971
I       -0.029492907   0.246081367   0.523311474
I        0.022184847  -0.028599696   0.755451090
I        0.255429040   0.469801087   0.028497895
I        0.075656185   0.745870587   0.006369298
I       -0.016798842   0.504826306   0.253350650
I        0.255922125   0.471109978   0.475227109
I        0.072463829   0.745742809   0.501872316
I        0.019086394   0.492874842   0.752563991
I        0.756155132  -0.030648534  -0.024611343
I        0.573748675   0.246397045   0.002187839
I        0.519563126  -0.007310557   0.254079351
I        0.754837006  -0.028466917   0.528937991
I        0.573915638   0.246168538   0.506831760
I        0.483169746   0.004715105   0.754015195
I        0.754839283   0.572563157  -0.004640451
I        0.470032097   0.746200464   0.022800062
I        0.522496453   0.471225444   0.253640274
I        0.755370164   0.569767936   0.510529050
I        0.469863767   0.745947112   0.476914531
I        0.475490217   0.510165540   0.753423429
C        0.251784356   0.285882816   0.251455575
C        0.284661780   0.280222447   0.748656812
C        0.269385887   0.786383468   0.253561899
C        0.294352486   0.781997426   0.751535822
C        0.794100528   0.281987346   0.252144311
C        0.769194930   0.285834574   0.752670303
C        0.784621314   0.780076628   0.249768574
C        0.751130212   0.785857259   0.751039852
N        0.156065725   0.242793057   0.251495418
N        0.343798031   0.235390138   0.251924395
N        0.199380912   0.197550264   0.756302964
N        0.220553011   0.678037604   0.258053485
N        0.207001467   0.700741125   0.754334447
N        0.706935721   0.201305238   0.255137818
N        0.721059054   0.176802865   0.756716633
N        0.701168473   0.696024506   0.254635773
N        0.655667022   0.742935787   0.751462348
N        0.843315909   0.735214918   0.751378835
H        0.255449325   0.372463479   0.251696158
H        0.142240310   0.162458507   0.251617853
H        0.090911932   0.291832885   0.251363700
H        0.350792982   0.154321068   0.251614624
H        0.412160593   0.280500627   0.251516735
H        0.202920418   0.147251780   0.691573444
H        0.124437276   0.231866735   0.758563616
H        0.209246690   0.151527877   0.823881946
H        0.273231705   0.325500267   0.675986398
H        0.362112140   0.239929910   0.748333356
H        0.278494351   0.332194381   0.817129387
H        0.234686707   0.635552163   0.189605477
H        0.138586214   0.681986603   0.268085091
H        0.250363821   0.633438493   0.320353152
H        0.233627355   0.830705430   0.188384375
H        0.355291774   0.777788891   0.241555512
H        0.254054090   0.825595918   0.328459990
H        0.156446680   0.709163402   0.689574589
H        0.161444953   0.708815001   0.822745779
H        0.237649815   0.624461945   0.752962341
H        0.341707809   0.768959736   0.680176157
H        0.343810609   0.771645235   0.821891997
H        0.257293696   0.861015225   0.750857326
H        0.656289082   0.209471265   0.190715580
H        0.661407051   0.208962944   0.323343064
H        0.737075592   0.125053997   0.253551048
H        0.841584671   0.268720702   0.181157420
H        0.843406912   0.272011823   0.322379148
H        0.757416713   0.360878387   0.251160333
H        0.736794292   0.134071029   0.688436370
H        0.638845385   0.179906115   0.765995627
H        0.750606788   0.133428872   0.820045203
H        0.733747916   0.328888625   0.686408793
H        0.855655099   0.277889595   0.742463702
H        0.751111663   0.325798776   0.826794184
H        0.705877800   0.647173847   0.189032606
H        0.625638821   0.728633357   0.256907907
H        0.710751759   0.649140123   0.321383646
H        0.773482582   0.826373965   0.178032397
H        0.862805505   0.741691470   0.250013519
H        0.776415351   0.831019797   0.318541409
H        0.755251168   0.872235811   0.750705663
H        0.641721120   0.662645727   0.752152942
H        0.590686497   0.792175419   0.751603071
H        0.850190556   0.654341222   0.751732808
H        0.911594895   0.779967091   0.750872618



     Writing output data file 0.25FA2_vcrelax5.save/
     NEW-OLD atomic charge density approx. for the potential
     extrapolated charge  406.61698, renormalised to  408.00000

     total cpu time spent up to now is   575125.6 secs

     Self-consistent Calculation

     iteration #  1     ecut=   120.00 Ry     beta= 0.70
     Davidson diagonalization with overlap
     ethr =  1.00E-06,  avg # of iterations =  5.0

     total cpu time spent up to now is   580516.0 secs

     total energy              =  -16545.20069098 Ry
     Harris-Foulkes estimate   =  -16547.29352231 Ry
     estimated scf accuracy    <       0.01874220 Ry

     iteration #  2     ecut=   120.00 Ry     beta= 0.70
     Davidson diagonalization with overlap
     ethr =  4.59E-06,  avg # of iterations =  4.0

     total cpu time spent up to now is   584335.2 secs

     total energy              =  -16545.21460933 Ry
     Harris-Foulkes estimate   =  -16545.22586693 Ry
     estimated scf accuracy    <       0.02637541 Ry

     iteration #  3     ecut=   120.00 Ry     beta= 0.70
     Davidson diagonalization with overlap
     ethr =  4.59E-06,  avg # of iterations =  2.0

     total cpu time spent up to now is   586984.8 secs

     total energy              =  -16545.21767813 Ry
     Harris-Foulkes estimate   =  -16545.21783775 Ry
     estimated scf accuracy    <       0.00248041 Ry

     iteration #  4     ecut=   120.00 Ry     beta= 0.70
     Davidson diagonalization with overlap
     ethr =  6.08E-07,  avg # of iterations =  3.0

     total cpu time spent up to now is   589380.2 secs

     total energy              =  -16545.21795493 Ry
     Harris-Foulkes estimate   =  -16545.21794297 Ry
     estimated scf accuracy    <       0.00079626 Ry

     iteration #  5     ecut=   120.00 Ry     beta= 0.70
     Davidson diagonalization with overlap
     ethr =  1.95E-07,  avg # of iterations =  2.1

     total cpu time spent up to now is   591712.9 secs

     total energy              =  -16545.21806588 Ry
     Harris-Foulkes estimate   =  -16545.21804442 Ry
     estimated scf accuracy    <       0.00023358 Ry

     iteration #  6     ecut=   120.00 Ry     beta= 0.70
     Davidson diagonalization with overlap
     ethr =  5.72E-08,  avg # of iterations =  2.0

     total cpu time spent up to now is   594096.9 secs

     total energy              =  -16545.21807826 Ry
     Harris-Foulkes estimate   =  -16545.21808816 Ry
     estimated scf accuracy    <       0.00003057 Ry

     iteration #  7     ecut=   120.00 Ry     beta= 0.70
     Davidson diagonalization with overlap
     ethr =  7.49E-09,  avg # of iterations =  3.3

     total cpu time spent up to now is   597217.0 secs

     total energy              =  -16545.21808443 Ry
     Harris-Foulkes estimate   =  -16545.21808724 Ry
     estimated scf accuracy    <       0.00000595 Ry

     iteration #  8     ecut=   120.00 Ry     beta= 0.70
     Davidson diagonalization with overlap
     ethr =  1.46E-09,  avg # of iterations =  3.0

     total cpu time spent up to now is   599887.0 secs

     total energy              =  -16545.21808591 Ry
     Harris-Foulkes estimate   =  -16545.21808618 Ry
     estimated scf accuracy    <       0.00000061 Ry

     iteration #  9     ecut=   120.00 Ry     beta= 0.70
     Davidson diagonalization with overlap
     ethr =  1.48E-10,  avg # of iterations =  3.0

     total cpu time spent up to now is   602436.9 secs

     total energy              =  -16545.21808604 Ry
     Harris-Foulkes estimate   =  -16545.21808605 Ry
     estimated scf accuracy    <       0.00000003 Ry

     iteration # 10     ecut=   120.00 Ry     beta= 0.70
     Davidson diagonalization with overlap
