
     Program PWSCF v.6.4 starts on 13Jun2020 at 17:36:31 

     This program is part of the open-source Quantum ESPRESSO suite
     for quantum simulation of materials; please cite
         "P. Giannozzi et al., J. Phys.:Condens. Matter 21 395502 (2009);
         "P. Giannozzi et al., J. Phys.:Condens. Matter 29 465901 (2017);
          URL http://www.quantum-espresso.org", 
     in publications or presentations arising from this work. More details at
     http://www.quantum-espresso.org/quote

     Parallel version (MPI), running on    32 processors

     MPI processes distributed on     1 nodes
     K-points division:     npool     =       4
     R & G space division:  proc/nbgrp/npool/nimage =       8
     Waiting for input...
     Reading input from standard input
     Message from routine read_cards :
     DEPRECATED: no units specified in CELL_PARAMETERS card

     Current dimensions of program PWSCF are:
     Max number of different atomic species (ntypx) = 10
     Max number of k-points (npk) =  40000
     Max angular momentum in pseudopotentials (lmaxx) =  3
               file Pb.pbe-dn-kjpaw_psl.1.0.0.UPF: wavefunction(s)  6S 6P 5D renormalized
               file I.pbe-n-kjpaw_psl.1.0.0.UPF: wavefunction(s)  5S renormalized
               file C.pbe-n-kjpaw_psl.1.0.0.UPF: wavefunction(s)  2S 2P renormalized
               file N.pbe-n-kjpaw_psl.1.0.0.UPF: wavefunction(s)  2S renormalized
               file H.pbe-kjpaw_psl.1.0.0.UPF: wavefunction(s)  1S renormalized

     --------------------------------------------
     Parameters for DFT-D3 Dispersion Correction:
     --------------------------------------------
       Reference C6 values for interpolation: 

         atom   Coordination number   C6
         H          0.912             6.05
         H          0.000            15.18
         C          0.000            98.23
         C          0.987            86.49
         C          1.998            58.72
         C          2.999            51.56
         C          3.984            36.41
         N          0.000            50.54
         N          0.994            44.25
         N          2.014            39.35
         N          2.990            31.16
         I          0.000           703.93
         I          0.997           717.00
         Pb         0.000          1477.63
         Pb         0.938          1266.00
         Pb         1.936          1088.91
         Pb         2.908          1048.37
         Pb         3.910           910.57

       Values used:

         atom   Coordination number  R0_AB[au]  C6      C8
         Pb         4.828            4.041    910.57 144158.36
         Pb         4.799            4.041    910.57 144158.42
         Pb         4.793            4.041    910.57 144158.43
         Pb         4.840            4.041    910.57 144158.33
         Pb         4.802            4.041    910.57 144158.41
         Pb         4.819            4.041    910.57 144158.37
         Pb         4.815            4.041    910.57 144158.38
         Pb         4.828            4.041    910.57 144158.35
         I          1.938            3.532    717.00  65855.99
         I          1.962            3.532    717.00  65856.00
         I          1.899            3.532    717.00  65855.99
         I          1.931            3.532    717.00  65855.99
         I          1.999            3.532    717.00  65856.00
         I          1.981            3.532    717.00  65856.00
         I          1.951            3.532    717.00  65856.00
         I          1.934            3.532    717.00  65855.99
         I          1.965            3.532    717.00  65856.00
         I          1.977            3.532    717.00  65856.00
         I          1.921            3.532    717.00  65855.99
         I          1.998            3.532    717.00  65856.00
         I          1.968            3.532    717.00  65856.00
         I          1.912            3.532    717.00  65855.99
         I          1.996            3.532    717.00  65856.00
         I          1.959            3.532    717.00  65856.00
         I          1.943            3.532    717.00  65855.99
         I          1.966            3.532    717.00  65856.00
         I          1.929            3.532    717.00  65855.99
         I          1.986            3.532    717.00  65856.00
         I          1.987            3.532    717.00  65856.00
         I          1.946            3.532    717.00  65855.99
         I          1.971            3.532    717.00  65856.00
         I          1.904            3.532    717.00  65855.99
         C          3.092            2.750     50.93   1473.04
         C          4.035            2.750     36.59   1058.38
         C          4.040            2.750     36.59   1058.17
         C          4.041            2.750     36.59   1058.13
         C          4.044            2.750     36.58   1058.04
         C          4.039            2.750     36.59   1058.23
         C          4.037            2.750     36.59   1058.29
         C          3.092            2.750     50.93   1472.92
         N          3.093            2.478     31.24    689.15
         N          3.098            2.478     31.24    689.09
         N          4.053            2.478     31.16    687.49
         N          4.054            2.478     31.16    687.49
         N          4.060            2.478     31.16    687.49
         N          4.061            2.478     31.16    687.49
         N          4.052            2.478     31.16    687.49
         N          4.055            2.478     31.16    687.49
         N          3.093            2.478     31.24    689.14
         N          3.098            2.478     31.24    689.08
         H          1.027            2.062      6.16     74.44
         H          1.037            2.062      6.15     74.36
         H          1.026            2.062      6.16     74.46
         H          1.030            2.062      6.16     74.42
         H          1.047            2.062      6.14     74.28
         H          1.052            2.062      6.14     74.24
         H          1.015            2.062      6.17     74.56
         H          1.063            2.062      6.13     74.15
         H          1.011            2.062      6.17     74.60
         H          1.007            2.062      6.17     74.64
         H          1.011            2.062      6.17     74.60
         H          1.028            2.062      6.16     74.44
         H          1.029            2.062      6.16     74.43
         H          1.034            2.062      6.15     74.38
         H          1.009            2.062      6.17     74.63
         H          1.015            2.062      6.17     74.56
         H          1.010            2.062      6.17     74.62
         H          1.066            2.062      6.13     74.13
         H          1.076            2.062      6.13     74.07
         H          1.018            2.062      6.17     74.53
         H          1.014            2.062      6.17     74.58
         H          1.015            2.062      6.17     74.56
         H          1.010            2.062      6.17     74.61
         H          1.066            2.062      6.13     74.13
         H          1.074            2.062      6.13     74.08
         H          1.018            2.062      6.17     74.53
         H          1.014            2.062      6.17     74.57
         H          1.016            2.062      6.17     74.55
         H          1.011            2.062      6.17     74.60
         H          1.030            2.062      6.16     74.42
         H          1.029            2.062      6.16     74.43
         H          1.032            2.062      6.15     74.40
         H          1.009            2.062      6.17     74.62
         H          1.014            2.062      6.17     74.57
         H          1.009            2.062      6.17     74.62
         H          1.055            2.062      6.14     74.21
         H          1.016            2.062      6.17     74.56
         H          1.063            2.062      6.13     74.15
         H          1.012            2.062      6.17     74.60
         H          1.008            2.062      6.17     74.64
         H          1.011            2.062      6.17     74.60
         H          1.028            2.062      6.16     74.44
         H          1.037            2.062      6.15     74.35
         H          1.027            2.062      6.16     74.45
         H          1.030            2.062      6.16     74.42
         H          1.045            2.062      6.15     74.29

         Molecular C6 ( Ry / a.u.^6 ) =   1214804.30


     Subspace diagonalization in iterative solution of the eigenvalue problem:
     a serial algorithm will be used


     Parallelization info
     --------------------
     sticks:   dense  smooth     PW     G-vecs:    dense   smooth      PW
     Min        2680    2680    690               300100   300100   39282
     Max        2681    2681    691               300103   300103   39285
     Sum       21441   21441   5523              2400803  2400803  314263



     bravais-lattice index     =            0
     lattice parameter (alat)  =      24.1526  a.u.
     unit-cell volume          =   13519.4696 (a.u.)^3
     number of atoms/cell      =           96
     number of atomic types    =            5
     number of electrons       =       408.00
     number of Kohn-Sham states=          204
     kinetic-energy cutoff     =     120.0000  Ry
     charge density cutoff     =     480.0000  Ry
     convergence threshold     =      1.0E-07
     mixing beta               =       0.7000
     number of iterations used =            8  plain     mixing
     Exchange-correlation      = SLA PW PBX PBC ( 1  4  3  4 0 0)
     nstep                     =          150


     celldm(1)=  24.152590  celldm(2)=   0.000000  celldm(3)=   0.000000
     celldm(4)=   0.000000  celldm(5)=   0.000000  celldm(6)=   0.000000

     crystal axes: (cart. coord. in units of alat)
               a(1) = (   0.979735   0.000000   0.000000 )  
               a(2) = (   0.000000   0.982637   0.000000 )  
               a(3) = (   0.000000   0.000000   0.996705 )  

     reciprocal axes: (cart. coord. in units 2 pi/alat)
               b(1) = (  1.020684  0.000000  0.000000 )  
               b(2) = (  0.000000  1.017670  0.000000 )  
               b(3) = (  0.000000  0.000000  1.003306 )  


     PseudoPot. # 1 for Pb read from file:
     ../../Pseudopotential/Pb.pbe-dn-kjpaw_psl.1.0.0.UPF
     MD5 check sum: 684fc8fbce61a260853528575e4d9ab7
     Pseudo is Projector augmented-wave + core cor, Zval = 14.0
     Generated using "atomic" code by A. Dal Corso v.6.3
     Shape of augmentation charge: PSQ
     Using radial grid of 1281 points,  6 beta functions with: 
                l(1) =   0
                l(2) =   0
                l(3) =   1
                l(4) =   1
                l(5) =   2
                l(6) =   2
     Q(r) pseudized with 0 coefficients 


     PseudoPot. # 2 for I  read from file:
     ../../Pseudopotential/I.pbe-n-kjpaw_psl.1.0.0.UPF
     MD5 check sum: cd3d296c3308a581e1559a0c8a554cb5
     Pseudo is Projector augmented-wave + core cor, Zval =  7.0
     Generated using "atomic" code by A. Dal Corso v.6.3
     Shape of augmentation charge: PSQ
     Using radial grid of 1247 points,  6 beta functions with: 
                l(1) =   0
                l(2) =   0
                l(3) =   1
                l(4) =   1
                l(5) =   2
                l(6) =   2
     Q(r) pseudized with 0 coefficients 


     PseudoPot. # 3 for C  read from file:
     ../../Pseudopotential/C.pbe-n-kjpaw_psl.1.0.0.UPF
     MD5 check sum: 5f16ad9a65e90284d1d834d4ab3b0f7d
     Pseudo is Projector augmented-wave + core cor, Zval =  4.0
     Generated using "atomic" code by A. Dal Corso v.6.3
     Shape of augmentation charge: PSQ
     Using radial grid of 1073 points,  4 beta functions with: 
                l(1) =   0
                l(2) =   0
                l(3) =   1
                l(4) =   1
     Q(r) pseudized with 0 coefficients 


     PseudoPot. # 4 for N  read from file:
     ../../Pseudopotential/N.pbe-n-kjpaw_psl.1.0.0.UPF
     MD5 check sum: 14c48229446f9f2d411169a3abcbc3fa
     Pseudo is Projector augmented-wave + core cor, Zval =  5.0
     Generated using "atomic" code by A. Dal Corso v.6.3
     Shape of augmentation charge: PSQ
     Using radial grid of 1085 points,  4 beta functions with: 
                l(1) =   0
                l(2) =   0
                l(3) =   1
                l(4) =   1
     Q(r) pseudized with 0 coefficients 


     PseudoPot. # 5 for H  read from file:
     ../../Pseudopotential/H.pbe-kjpaw_psl.1.0.0.UPF
     MD5 check sum: d81a744832360e4a8af0b0b5b123bc2a
     Pseudo is Projector augmented-wave, Zval =  1.0
     Generated using "atomic" code by A. Dal Corso v.6.3MaX
     Shape of augmentation charge: PSQ
     Using radial grid of  929 points,  2 beta functions with: 
                l(1) =   0
                l(2) =   0
     Q(r) pseudized with 0 coefficients 


     atomic species   valence    mass     pseudopotential
        Pb            14.00   207.97600     Pb( 1.00)
        I              7.00   126.90400     I ( 1.00)
        C              4.00    12.00000     C ( 1.00)
        N              5.00    14.00300     N ( 1.00)
        H              1.00     1.00700     H ( 1.00)

     No symmetry found



   Cartesian axes

     site n.     atom                  positions (alat units)
         1           Pb  tau(   1) = (   0.0097013  -0.0080451   0.0034185  )
         2           Pb  tau(   2) = (   0.0107802  -0.0062040   0.4979503  )
         3           Pb  tau(   3) = (   0.0000662   0.4851414   0.0019583  )
         4           Pb  tau(   4) = (   0.0002881   0.4847231   0.5010832  )
         5           Pb  tau(   5) = (   0.4896454  -0.0068681   0.0029144  )
         6           Pb  tau(   6) = (   0.4900205  -0.0053999   0.5004260  )
         7           Pb  tau(   7) = (   0.5006481   0.4840913   0.0001449  )
         8           Pb  tau(   8) = (   0.4998362   0.4843747   0.5022449  )
         9           I   tau(   9) = (   0.2495399   0.0689753   0.0117053  )
        10           I   tau(  10) = (  -0.0307887   0.2413771  -0.0227047  )
        11           I   tau(  11) = (  -0.0243273   0.0101975   0.2539649  )
        12           I   tau(  12) = (   0.2495902   0.0715605   0.4954352  )
        13           I   tau(  13) = (  -0.0288952   0.2418087   0.5215872  )
        14           I   tau(  14) = (   0.0217353  -0.0281031   0.7529620  )
        15           I   tau(  15) = (   0.2502528   0.4616440   0.0284040  )
        16           I   tau(  16) = (   0.0741230   0.7329201   0.0063483  )
        17           I   tau(  17) = (  -0.0164584   0.4960610   0.2525159  )
        18           I   tau(  18) = (   0.2507359   0.4629301   0.4736613  )
        19           I   tau(  19) = (   0.0709954   0.7327945   0.5002187  )
        20           I   tau(  20) = (   0.0186996   0.4843171   0.7500844  )
        21           I   tau(  21) = (   0.7408317  -0.0301164  -0.0245303  )
        22           I   tau(  22) = (   0.5621217   0.2421189   0.0021806  )
        23           I   tau(  23) = (   0.5090342  -0.0071836   0.2532422  )
        24           I   tau(  24) = (   0.7395403  -0.0279726   0.5271952  )
        25           I   tau(  25) = (   0.5622853   0.2418943   0.5051618  )
        26           I   tau(  26) = (   0.4733784   0.0046332   0.7515308  )
        27           I   tau(  27) = (   0.7395426   0.5626218  -0.0046252  )
        28           I   tau(  28) = (   0.4605070   0.7332442   0.0227249  )
        29           I   tau(  29) = (   0.5119081   0.4630436   0.2528046  )
        30           I   tau(  30) = (   0.7400627   0.5598751   0.5088469  )
        31           I   tau(  31) = (   0.4603420   0.7329953   0.4753432  )
        32           I   tau(  32) = (   0.4658545   0.5013076   0.7509410  )
        33           C   tau(  33) = (   0.2466820   0.2809191   0.2506271  )
        34           C   tau(  34) = (   0.2788931   0.2753570   0.7461901  )
        35           C   tau(  35) = (   0.2639268   0.7727295   0.2527265  )
        36           C   tau(  36) = (   0.2883875   0.7684197   0.7490596  )
        37           C   tau(  37) = (   0.7780082   0.2770912   0.2513135  )
        38           C   tau(  38) = (   0.7536073   0.2808716   0.7501904  )
        39           C   tau(  39) = (   0.7687211   0.7665322   0.2489456  )
        40           C   tau(  40) = (   0.7359087   0.7722125   0.7485653  )
        41           N   tau(  41) = (   0.1529031   0.2385775   0.2506668  )
        42           N   tau(  42) = (   0.3368310   0.2313031   0.2510943  )
        43           N   tau(  43) = (   0.1953405   0.1941202   0.7538111  )
        44           N   tau(  44) = (   0.2160835   0.6662649   0.2572032  )
        45           N   tau(  45) = (   0.2028066   0.6885742   0.7518490  )
        46           N   tau(  46) = (   0.6926098   0.1978100   0.2542972  )
        47           N   tau(  47) = (   0.7064469   0.1737330   0.7542234  )
        48           N   tau(  48) = (   0.6869594   0.6839395   0.2537968  )
        49           N   tau(  49) = (   0.6423800   0.7300362   0.7489864  )
        50           N   tau(  50) = (   0.8262262   0.7224494   0.7489032  )
        51           H   tau(  51) = (   0.2502727   0.3659964   0.2508669  )
        52           H   tau(  52) = (   0.1393578   0.1596378   0.2507888  )
        53           H   tau(  53) = (   0.0890696   0.2867658   0.2505355  )
        54           H   tau(  54) = (   0.3436842   0.1516416   0.2507856  )
        55           H   tau(  55) = (   0.4038082   0.2756303   0.2506880  )
        56           H   tau(  56) = (   0.1988083   0.1446951   0.6892948  )
        57           H   tau(  57) = (   0.1219156   0.2278408   0.7560643  )
        58           H   tau(  58) = (   0.2050063   0.1488969   0.8211674  )
        59           H   tau(  59) = (   0.2676947   0.3198486   0.6737591  )
        60           H   tau(  60) = (   0.3547740   0.2357640   0.7458677  )
        61           H   tau(  61) = (   0.2728507   0.3264265   0.8144371  )
        62           H   tau(  62) = (   0.2299308   0.6245171   0.1889808  )
        63           H   tau(  63) = (   0.1357778   0.6701453   0.2672018  )
        64           H   tau(  64) = (   0.2452902   0.6224401   0.3192976  )
        65           H   tau(  65) = (   0.2288929   0.8162819   0.1877637  )
        66           H   tau(  66) = (   0.3480918   0.7642842   0.2407596  )
        67           H   tau(  67) = (   0.2489057   0.8112611   0.3273778  )
        68           H   tau(  68) = (   0.1532763   0.6968502   0.6873025  )
        69           H   tau(  69) = (   0.1581733   0.6965079   0.8200350  )
        70           H   tau(  70) = (   0.2328339   0.6136195   0.7504814  )
        71           H   tau(  71) = (   0.3347831   0.7556083   0.6779351  )
        72           H   tau(  72) = (   0.3368433   0.7582472   0.8191840  )
        73           H   tau(  73) = (   0.2520797   0.8460655   0.7483834  )
        74           H   tau(  74) = (   0.6429895   0.2058342   0.1900872  )
        75           H   tau(  75) = (   0.6480037   0.2053347   0.3222777  )
        76           H   tau(  76) = (   0.7221388   0.1228827   0.2527156  )
        77           H   tau(  77) = (   0.8245301   0.2640549   0.1805605  )
        78           H   tau(  78) = (   0.8263154   0.2672889   0.3213170  )
        79           H   tau(  79) = (   0.7420678   0.3546125   0.2503328  )
        80           H   tau(  80) = (   0.7218632   0.1317432   0.6861681  )
        81           H   tau(  81) = (   0.6258993   0.1767824   0.7634718  )
        82           H   tau(  82) = (   0.7353958   0.1311122   0.8173433  )
        83           H   tau(  83) = (   0.7188786   0.3231782   0.6841472  )
        84           H   tau(  84) = (   0.8383154   0.2730646   0.7400174  )
        85           H   tau(  85) = (   0.7358905   0.3201420   0.8240700  )
        86           H   tau(  86) = (   0.6915733   0.6359370   0.1884098  )
        87           H   tau(  87) = (   0.6129603   0.7159821   0.2560614  )
        88           H   tau(  88) = (   0.6963485   0.6378691   0.3203247  )
        89           H   tau(  89) = (   0.7578081   0.8120257   0.1774458  )
        90           H   tau(  90) = (   0.8453209   0.7288135   0.2491898  )
        91           H   tau(  91) = (   0.7606814   0.8165909   0.3174919  )
        92           H   tau(  92) = (   0.7399461   0.8570912   0.7482322  )
        93           H   tau(  93) = (   0.6287167   0.6511403   0.7496747  )
        94           H   tau(  94) = (   0.5787163   0.7784209   0.7491267  )
        95           H   tau(  95) = (   0.8329616   0.6429799   0.7492560  )
        96           H   tau(  96) = (   0.8931215   0.7664246   0.7483986  )

     number of k points=    32
                       cart. coord. in units 2pi/alat
        k(    1) = (   0.1275855   0.1272087   0.1254132), wk =   0.0625000
        k(    2) = (   0.1275855   0.1272087   0.3762397), wk =   0.0625000
        k(    3) = (   0.1275855   0.3816262   0.1254132), wk =   0.0625000
        k(    4) = (   0.1275855   0.3816262   0.3762397), wk =   0.0625000
        k(    5) = (   0.3827565   0.1272087   0.1254132), wk =   0.0625000
        k(    6) = (   0.3827565   0.1272087   0.3762397), wk =   0.0625000
        k(    7) = (   0.3827565   0.3816262   0.1254132), wk =   0.0625000
        k(    8) = (   0.3827565   0.3816262   0.3762397), wk =   0.0625000
        k(    9) = (  -0.1275855  -0.1272087   0.1254132), wk =   0.0625000
        k(   10) = (  -0.1275855   0.1272087  -0.1254132), wk =   0.0625000
        k(   11) = (   0.1275855  -0.1272087  -0.1254132), wk =   0.0625000
        k(   12) = (  -0.1275855  -0.1272087   0.3762397), wk =   0.0625000
        k(   13) = (  -0.1275855   0.1272087  -0.3762397), wk =   0.0625000
        k(   14) = (   0.1275855  -0.1272087  -0.3762397), wk =   0.0625000
        k(   15) = (  -0.1275855  -0.3816262   0.1254132), wk =   0.0625000
        k(   16) = (  -0.1275855   0.3816262  -0.1254132), wk =   0.0625000
        k(   17) = (   0.1275855  -0.3816262  -0.1254132), wk =   0.0625000
        k(   18) = (  -0.1275855  -0.3816262   0.3762397), wk =   0.0625000
        k(   19) = (  -0.1275855   0.3816262  -0.3762397), wk =   0.0625000
        k(   20) = (   0.1275855  -0.3816262  -0.3762397), wk =   0.0625000
        k(   21) = (  -0.3827565  -0.1272087   0.1254132), wk =   0.0625000
        k(   22) = (  -0.3827565   0.1272087  -0.1254132), wk =   0.0625000
        k(   23) = (   0.3827565  -0.1272087  -0.1254132), wk =   0.0625000
        k(   24) = (  -0.3827565  -0.1272087   0.3762397), wk =   0.0625000
        k(   25) = (  -0.3827565   0.1272087  -0.3762397), wk =   0.0625000
        k(   26) = (   0.3827565  -0.1272087  -0.3762397), wk =   0.0625000
        k(   27) = (  -0.3827565  -0.3816262   0.1254132), wk =   0.0625000
        k(   28) = (  -0.3827565   0.3816262  -0.1254132), wk =   0.0625000
        k(   29) = (   0.3827565  -0.3816262  -0.1254132), wk =   0.0625000
        k(   30) = (  -0.3827565  -0.3816262   0.3762397), wk =   0.0625000
        k(   31) = (  -0.3827565   0.3816262  -0.3762397), wk =   0.0625000
        k(   32) = (   0.3827565  -0.3816262  -0.3762397), wk =   0.0625000

     Dense  grid:  2400803 G-vectors     FFT dimensions: ( 180, 180, 180)

     Estimated max dynamical RAM per process >       3.15 GB

     Estimated total dynamical RAM >     100.94 GB

     Initial potential from superposition of free atoms

     starting charge  407.97850, renormalised to  408.00000
     Starting wfcs are  286 randomized atomic wfcs
     Checking if some PAW data can be deallocated... 

     total cpu time spent up to now is      919.8 secs

     Self-consistent Calculation

     iteration #  1     ecut=   120.00 Ry     beta= 0.70
     Davidson diagonalization with overlap
     ethr =  1.00E-02,  avg # of iterations =  2.0

     total cpu time spent up to now is     2592.1 secs

     total energy              =  -16543.26892747 Ry
     Harris-Foulkes estimate   =  -16546.88519290 Ry
     estimated scf accuracy    <       5.98971171 Ry

     iteration #  2     ecut=   120.00 Ry     beta= 0.70
     Davidson diagonalization with overlap
     ethr =  1.47E-03,  avg # of iterations =  3.9

     total cpu time spent up to now is     4942.2 secs

     total energy              =  -16544.57257097 Ry
     Harris-Foulkes estimate   =  -16546.02419395 Ry
     estimated scf accuracy    <       2.61300464 Ry

     iteration #  3     ecut=   120.00 Ry     beta= 0.70
     Davidson diagonalization with overlap
     ethr =  6.40E-04,  avg # of iterations =  4.0

     total cpu time spent up to now is     6771.5 secs

     total energy              =  -16545.17773796 Ry
     Harris-Foulkes estimate   =  -16545.23324069 Ry
     estimated scf accuracy    <       0.12398394 Ry

     iteration #  4     ecut=   120.00 Ry     beta= 0.70
     Davidson diagonalization with overlap
     ethr =  3.04E-05,  avg # of iterations =  4.0

     total cpu time spent up to now is     9136.5 secs

     total energy              =  -16545.21069440 Ry
     Harris-Foulkes estimate   =  -16545.22774308 Ry
     estimated scf accuracy    <       0.03288012 Ry

     iteration #  5     ecut=   120.00 Ry     beta= 0.70
     Davidson diagonalization with overlap
     ethr =  8.06E-06,  avg # of iterations =  4.0

     total cpu time spent up to now is    11085.1 secs

     total energy              =  -16545.21729967 Ry
     Harris-Foulkes estimate   =  -16545.21840389 Ry
     estimated scf accuracy    <       0.00214044 Ry

     iteration #  6     ecut=   120.00 Ry     beta= 0.70
     Davidson diagonalization with overlap
     ethr =  5.25E-07,  avg # of iterations =  4.0

     total cpu time spent up to now is    13368.2 secs

     total energy              =  -16545.21793033 Ry
     Harris-Foulkes estimate   =  -16545.21817188 Ry
     estimated scf accuracy    <       0.00053762 Ry

     iteration #  7     ecut=   120.00 Ry     beta= 0.70
     Davidson diagonalization with overlap
     ethr =  1.32E-07,  avg # of iterations =  3.1

     total cpu time spent up to now is    15467.6 secs

     total energy              =  -16545.21804208 Ry
     Harris-Foulkes estimate   =  -16545.21806280 Ry
     estimated scf accuracy    <       0.00004513 Ry

     iteration #  8     ecut=   120.00 Ry     beta= 0.70
     Davidson diagonalization with overlap
     ethr =  1.11E-08,  avg # of iterations =  4.0

     total cpu time spent up to now is    17709.2 secs

     total energy              =  -16545.21805356 Ry
     Harris-Foulkes estimate   =  -16545.21806587 Ry
     estimated scf accuracy    <       0.00002885 Ry

     iteration #  9     ecut=   120.00 Ry     beta= 0.70
     Davidson diagonalization with overlap
     ethr =  7.07E-09,  avg # of iterations =  4.0

     total cpu time spent up to now is    19660.4 secs

     total energy              =  -16545.21805950 Ry
     Harris-Foulkes estimate   =  -16545.21806011 Ry
     estimated scf accuracy    <       0.00000138 Ry

     iteration # 10     ecut=   120.00 Ry     beta= 0.70
     Davidson diagonalization with overlap
     ethr =  3.39E-10,  avg # of iterations =  4.0

     total cpu time spent up to now is    21783.9 secs

     total energy              =  -16545.21805987 Ry
     Harris-Foulkes estimate   =  -16545.21805996 Ry
     estimated scf accuracy    <       0.00000019 Ry

     iteration # 11     ecut=   120.00 Ry     beta= 0.70
     Davidson diagonalization with overlap
     ethr =  4.58E-11,  avg # of iterations =  3.1

     total cpu time spent up to now is    23910.3 secs

     End of self-consistent calculation

          k = 0.1276 0.1272 0.1254 (300099 PWs)   bands (ev):

   -17.8068 -17.7937 -17.5824 -17.5689 -17.5259 -17.5154 -17.4947 -17.4224
   -15.6895 -15.6765 -14.1726 -14.1725 -14.1614 -14.1589 -14.1541 -14.1525
   -14.1504 -14.1483 -14.1453 -14.1427 -14.1395 -14.1378 -14.1345 -14.1330
   -14.1289 -14.1287 -14.1277 -14.1264 -14.1255 -14.1239 -14.1221 -14.1195
   -14.1179 -14.1149 -14.1147 -14.1143 -14.1137 -14.1112 -14.1109 -14.1084
   -14.1084 -14.1076 -14.1052 -14.1037 -14.1034 -14.1018 -14.0994 -14.0988
   -14.0960 -14.0919 -10.5042 -10.4965 -10.4647 -10.4566 -10.4406 -10.3926
    -9.6730  -9.6545  -9.5505  -9.4312  -9.4150  -9.3761  -9.2998  -9.2711
    -9.2498  -9.2261  -9.1792  -9.1621  -9.1339  -9.1109  -9.0892  -9.0674
    -9.0624  -9.0527  -9.0385  -9.0222  -8.9749  -8.9245  -8.8979  -8.8834
    -8.8418  -8.8326  -7.6665  -7.6501  -7.0766  -7.0649  -7.0210  -7.0039
    -6.9828  -6.9671  -6.9581  -6.9417  -6.9392  -6.9183  -6.9014  -6.8984
    -6.8697  -6.8311  -5.7786  -5.3764  -5.3706  -5.3624  -5.3294  -5.3068
    -4.9533  -4.9151  -4.8954  -4.8589  -4.8548  -4.8054  -4.7985  -4.7847
    -4.7220  -4.4800  -3.7538  -3.7427  -3.2322  -3.2255  -2.7816  -2.7721
    -2.7601  -2.7513  -2.7336  -2.7276  -2.7193  -2.7184  -2.7130  -2.7028
    -2.6974  -2.6883  -0.8481  -0.8004  -0.7259  -0.7185  -0.6640  -0.6186
    -0.6159  -0.5943  -0.5458  -0.4928  -0.4706  -0.4264  -0.0648   0.0290
     0.3372   0.3495   0.3840   0.4242   0.4301   0.4696   0.5394   0.5560
     0.6298   0.6348   0.7142   0.7229   0.7722   0.8274   0.8562   0.8824
     0.8966   0.9287   0.9611   0.9795   1.0070   1.0142   1.0375   1.0449
     1.0774   1.0819   1.1083   1.1125   1.1242   1.1428   1.1759   1.1822
     1.2240   1.2429   1.2725   1.2796   1.3001   1.3378   1.3480   1.3587
     1.3891   1.3907   1.4082   1.4226   1.4597   1.4723   1.5318   1.5549
     1.5676   1.6014   1.6311   1.6622   1.6956   1.7697   1.8335   1.8479
     1.8906   1.9075   1.9515   2.1649

          k = 0.1276 0.1272 0.3762 (300184 PWs)   bands (ev):

   -17.8068 -17.7937 -17.5824 -17.5689 -17.5259 -17.5154 -17.4947 -17.4224
   -15.6895 -15.6765 -14.1708 -14.1701 -14.1638 -14.1607 -14.1524 -14.1514
   -14.1504 -14.1475 -14.1453 -14.1446 -14.1402 -14.1389 -14.1346 -14.1330
   -14.1289 -14.1287 -14.1277 -14.1264 -14.1255 -14.1239 -14.1221 -14.1195
   -14.1179 -14.1149 -14.1147 -14.1143 -14.1137 -14.1112 -14.1109 -14.1084
   -14.1084 -14.1076 -14.1052 -14.1037 -14.1034 -14.1018 -14.0994 -14.0988
   -14.0960 -14.0919 -10.5041 -10.4964 -10.4644 -10.4566 -10.4409 -10.3926
    -9.6645  -9.6519  -9.5306  -9.4796  -9.3967  -9.3544  -9.3423  -9.3049
    -9.2745  -9.2568  -9.1297  -9.1100  -9.1041  -9.0999  -9.0927  -9.0783
    -9.0711  -9.0589  -9.0072  -8.9905  -8.9723  -8.9378  -8.9296  -8.9092
    -8.8389  -8.8348  -7.6666  -7.6506  -7.0766  -7.0649  -7.0211  -7.0042
    -6.9813  -6.9656  -6.9574  -6.9399  -6.9355  -6.9182  -6.9045  -6.8990
    -6.8715  -6.8327  -5.6543  -5.4645  -5.3720  -5.3601  -5.2510  -5.2142
    -5.0633  -5.0356  -4.8820  -4.8590  -4.8433  -4.8045  -4.8001  -4.7756
    -4.7206  -4.6221  -3.7540  -3.7429  -3.2321  -3.2255  -2.7794  -2.7715
    -2.7598  -2.7448  -2.7400  -2.7318  -2.7268  -2.7218  -2.7131  -2.7024
    -2.6891  -2.6806  -0.6911  -0.6522  -0.6508  -0.6053  -0.5768  -0.5392
    -0.5272  -0.4744  -0.3750  -0.3523  -0.2841  -0.2225  -0.0562   0.0043
     0.1985   0.2588   0.3009   0.3597   0.4154   0.4319   0.4402   0.4751
     0.4843   0.4965   0.5452   0.5719   0.5966   0.6188   0.8110   0.8394
     0.8516   0.8655   0.9522   0.9568   0.9721   0.9978   1.0321   1.0378
     1.0544   1.0575   1.1020   1.1055   1.1432   1.1575   1.2176   1.2215
     1.2551   1.2582   1.2648   1.2925   1.2950   1.3243   1.3574   1.3670
     1.4033   1.4051   1.4376   1.4409   1.4542   1.4609   1.5076   1.5247
     1.5647   1.5677   1.5936   1.6107   1.6871   1.7335   1.7371   1.7760
     1.8316   1.8329   1.9286   1.9839

          k = 0.1276 0.3816 0.1254 (300079 PWs)   bands (ev):

   -17.8068 -17.7937 -17.5824 -17.5689 -17.5259 -17.5154 -17.4947 -17.4224
   -15.6895 -15.6765 -14.1725 -14.1724 -14.1612 -14.1586 -14.1536 -14.1526
   -14.1495 -14.1484 -14.1440 -14.1429 -14.1396 -14.1386 -14.1350 -14.1334
   -14.1295 -14.1288 -14.1277 -14.1264 -14.1260 -14.1239 -14.1221 -14.1195
   -14.1179 -14.1149 -14.1147 -14.1143 -14.1137 -14.1112 -14.1110 -14.1084
   -14.1084 -14.1076 -14.1051 -14.1037 -14.1034 -14.1018 -14.0994 -14.0988
   -14.0960 -14.0919 -10.5040 -10.4962 -10.4646 -10.4565 -10.4410 -10.3930
    -9.6692  -9.6579  -9.5169  -9.4627  -9.4006  -9.3534  -9.3415  -9.3017
    -9.2454  -9.2439  -9.1816  -9.1694  -9.1325  -9.1276  -9.0761  -9.0661
    -9.0412  -9.0361  -9.0275  -9.0133  -8.9351  -8.9149  -8.9121  -8.8784
    -8.8636  -8.8523  -7.6659  -7.6500  -7.0766  -7.0649  -7.0207  -7.0038
    -6.9829  -6.9667  -6.9586  -6.9415  -6.9394  -6.9187  -6.9014  -6.8986
    -6.8699  -6.8312  -5.6624  -5.4868  -5.3733  -5.3615  -5.2438  -5.2008
    -5.0820  -5.0310  -4.8769  -4.8568  -4.8331  -4.8030  -4.7928  -4.7670
    -4.7154  -4.6050  -3.7540  -3.7428  -3.2322  -3.2255  -2.7769  -2.7700
    -2.7586  -2.7459  -2.7377  -2.7278  -2.7213  -2.7189  -2.7163  -2.7056
    -2.6970  -2.6889  -0.8168  -0.7943  -0.7100  -0.6714  -0.6359  -0.6111
    -0.5484  -0.5003  -0.3392  -0.2657  -0.1712  -0.1380   0.0036   0.0061
     0.1711   0.2659   0.3436   0.3797   0.3891   0.4179   0.4428   0.4939
     0.4968   0.5378   0.5865   0.6212   0.6630   0.7633   0.7877   0.8120
     0.8315   0.8584   0.9396   0.9576   0.9962   1.0194   1.0243   1.0399
     1.0432   1.0766   1.1066   1.1247   1.1471   1.1550   1.1800   1.1846
     1.2206   1.2396   1.2655   1.3021   1.3101   1.3213   1.3399   1.3659
     1.3764   1.3798   1.4170   1.4432   1.4840   1.5187   1.5283   1.5368
     1.5513   1.5626   1.6138   1.6281   1.6966   1.7444   1.7772   1.7800
     1.8221   1.8244   1.9710   2.0128

          k = 0.1276 0.3816 0.3762 (300092 PWs)   bands (ev):

   -17.8068 -17.7937 -17.5824 -17.5689 -17.5259 -17.5154 -17.4947 -17.4224
   -15.6895 -15.6765 -14.1706 -14.1700 -14.1637 -14.1604 -14.1520 -14.1510
   -14.1495 -14.1477 -14.1448 -14.1439 -14.1404 -14.1397 -14.1350 -14.1334
   -14.1295 -14.1288 -14.1277 -14.1264 -14.1260 -14.1239 -14.1221 -14.1195
   -14.1179 -14.1149 -14.1147 -14.1143 -14.1137 -14.1112 -14.1110 -14.1084
   -14.1084 -14.1076 -14.1051 -14.1037 -14.1034 -14.1018 -14.0994 -14.0988
   -14.0960 -14.0919 -10.5039 -10.4961 -10.4642 -10.4565 -10.4413 -10.3930
    -9.6644  -9.6530  -9.4998  -9.4662  -9.3990  -9.3697  -9.3637  -9.3266
    -9.2926  -9.2729  -9.1254  -9.1153  -9.1035  -9.0973  -9.0798  -9.0696
    -9.0578  -9.0543  -8.9967  -8.9959  -8.9615  -8.9431  -8.9032  -8.8900
    -8.8627  -8.8573  -7.6662  -7.6503  -7.0766  -7.0649  -7.0209  -7.0041
    -6.9813  -6.9658  -6.9574  -6.9401  -6.9356  -6.9180  -6.9045  -6.8991
    -6.8716  -6.8328  -5.5415  -5.3891  -5.3673  -5.3585  -5.3372  -5.1792
    -5.1308  -4.9887  -4.9484  -4.8711  -4.8561  -4.8163  -4.8003  -4.7868
    -4.7463  -4.7023  -3.7541  -3.7429  -3.2321  -3.2255  -2.7790  -2.7707
    -2.7578  -2.7441  -2.7399  -2.7306  -2.7274  -2.7193  -2.7159  -2.7059
    -2.6888  -2.6803  -0.6380  -0.6096  -0.5715  -0.5368  -0.4479  -0.4033
    -0.3467  -0.2825  -0.2545  -0.2396  -0.1802  -0.1699  -0.0095  -0.0027
     0.1681   0.1850   0.2626   0.2837   0.3139   0.3311   0.3502   0.3836
     0.4694   0.4765   0.5019   0.5154   0.6354   0.6636   0.7257   0.7274
     0.7847   0.7977   0.8611   0.8637   0.8825   0.8840   0.9777   0.9959
     1.0182   1.0245   1.0820   1.0949   1.1215   1.1229   1.1921   1.2136
     1.2594   1.2764   1.2849   1.2989   1.3112   1.3285   1.3629   1.3677
     1.4027   1.4077   1.4464   1.4543   1.4746   1.4875   1.5039   1.5226
     1.5477   1.5668   1.5799   1.6049   1.6636   1.6703   1.7454   1.7602
     1.7836   1.8055   1.8366   1.8505

          k = 0.3828 0.1272 0.1254 (300128 PWs)   bands (ev):

   -17.8068 -17.7937 -17.5824 -17.5689 -17.5259 -17.5154 -17.4947 -17.4224
   -15.6895 -15.6765 -14.1725 -14.1725 -14.1612 -14.1588 -14.1535 -14.1526
   -14.1492 -14.1483 -14.1439 -14.1423 -14.1403 -14.1387 -14.1347 -14.1334
   -14.1297 -14.1290 -14.1276 -14.1264 -14.1260 -14.1239 -14.1221 -14.1195
   -14.1179 -14.1149 -14.1147 -14.1143 -14.1137 -14.1112 -14.1110 -14.1084
   -14.1084 -14.1076 -14.1052 -14.1037 -14.1034 -14.1018 -14.0994 -14.0988
   -14.0960 -14.0919 -10.5037 -10.4967 -10.4641 -10.4569 -10.4413 -10.3933
    -9.6596  -9.6479  -9.5323  -9.4865  -9.3903  -9.3500  -9.3387  -9.2978
    -9.2497  -9.2460  -9.1757  -9.1664  -9.1331  -9.1296  -9.0812  -9.0723
    -9.0466  -9.0301  -9.0143  -9.0093  -8.9335  -8.9160  -8.9109  -8.8785
    -8.8653  -8.8578  -7.6664  -7.6505  -7.0772  -7.0659  -7.0207  -7.0038
    -6.9829  -6.9672  -6.9581  -6.9415  -6.9384  -6.9185  -6.9011  -6.8976
    -6.8699  -6.8312  -5.6639  -5.4907  -5.3745  -5.3627  -5.2381  -5.2030
    -5.0795  -5.0358  -4.8708  -4.8616  -4.8248  -4.8089  -4.7930  -4.7616
    -4.7149  -4.6022  -3.7545  -3.7433  -3.2322  -3.2256  -2.7782  -2.7719
    -2.7550  -2.7501  -2.7354  -2.7298  -2.7208  -2.7198  -2.7146  -2.7027
    -2.6972  -2.6894  -0.8314  -0.8149  -0.7036  -0.6957  -0.6575  -0.6516
    -0.5242  -0.5015  -0.3025  -0.2725  -0.2183  -0.1511  -0.0112   0.0700
     0.1994   0.2806   0.3465   0.3663   0.3889   0.4400   0.4532   0.4936
     0.5332   0.5422   0.6118   0.6302   0.6799   0.7500   0.7955   0.8224
     0.8269   0.8878   0.9302   0.9416   0.9799   1.0178   1.0302   1.0565
     1.0746   1.0796   1.0960   1.1092   1.1281   1.1560   1.1783   1.1903
     1.2272   1.2630   1.2795   1.2894   1.2986   1.3018   1.3381   1.3537
     1.3580   1.3705   1.4171   1.4261   1.4757   1.4819   1.5218   1.5392
     1.5440   1.5720   1.6112   1.6401   1.6929   1.7347   1.7940   1.7994
     1.8193   1.8603   1.9622   2.0137

          k = 0.3828 0.1272 0.3762 (300132 PWs)   bands (ev):

   -17.8068 -17.7937 -17.5824 -17.5689 -17.5259 -17.5154 -17.4947 -17.4224
   -15.6895 -15.6765 -14.1707 -14.1701 -14.1637 -14.1606 -14.1519 -14.1512
   -14.1492 -14.1476 -14.1449 -14.1432 -14.1409 -14.1401 -14.1347 -14.1334
   -14.1297 -14.1290 -14.1276 -14.1264 -14.1260 -14.1239 -14.1221 -14.1195
   -14.1179 -14.1149 -14.1147 -14.1143 -14.1137 -14.1112 -14.1110 -14.1084
   -14.1084 -14.1076 -14.1052 -14.1037 -14.1034 -14.1018 -14.0994 -14.0988
   -14.0960 -14.0919 -10.5036 -10.4966 -10.4639 -10.4570 -10.4416 -10.3934
    -9.6569  -9.6450  -9.5047  -9.4606  -9.4364  -9.3913  -9.3444  -9.3127
    -9.2886  -9.2702  -9.1262  -9.1184  -9.0983  -9.0896  -9.0875  -9.0843
    -9.0497  -9.0363  -9.0019  -8.9917  -8.9603  -8.9443  -8.9024  -8.8907
    -8.8655  -8.8621  -7.6667  -7.6508  -7.0772  -7.0659  -7.0209  -7.0041
    -6.9814  -6.9657  -6.9572  -6.9399  -6.9347  -6.9183  -6.9044  -6.8981
    -6.8714  -6.8327  -5.5426  -5.3805  -5.3720  -5.3659  -5.3430  -5.1846
    -5.1246  -4.9798  -4.9488  -4.8718  -4.8515  -4.8208  -4.7979  -4.7848
    -4.7458  -4.7005  -3.7545  -3.7433  -3.2322  -3.2256  -2.7761  -2.7707
    -2.7563  -2.7446  -2.7415  -2.7320  -2.7303  -2.7231  -2.7128  -2.7018
    -2.6898  -2.6812  -0.6674  -0.6423  -0.6054  -0.5854  -0.4193  -0.3848
    -0.3549  -0.2963  -0.2586  -0.2434  -0.1481  -0.1455  -0.0203  -0.0138
     0.1793   0.2147   0.2735   0.2876   0.3075   0.3219   0.3849   0.4120
     0.4301   0.4517   0.5406   0.5411   0.6574   0.6754   0.7364   0.7438
     0.8023   0.8189   0.8661   0.8873   0.9204   0.9295   0.9497   0.9916
     1.0114   1.0289   1.0411   1.0629   1.0916   1.1163   1.1647   1.2048
     1.2648   1.2740   1.3010   1.3134   1.3313   1.3323   1.3563   1.3582
     1.4033   1.4082   1.4262   1.4330   1.4562   1.4680   1.5020   1.5143
     1.5354   1.5657   1.6000   1.6025   1.6617   1.6792   1.7228   1.7335
     1.7885   1.8172   1.8687   1.8815

          k = 0.3828 0.3816 0.1254 (300102 PWs)   bands (ev):

   -17.8068 -17.7937 -17.5824 -17.5689 -17.5259 -17.5154 -17.4947 -17.4224
   -15.6895 -15.6765 -14.1724 -14.1724 -14.1610 -14.1585 -14.1533 -14.1522
   -14.1487 -14.1482 -14.1428 -14.1420 -14.1402 -14.1391 -14.1361 -14.1340
   -14.1305 -14.1289 -14.1276 -14.1266 -14.1264 -14.1239 -14.1222 -14.1195
   -14.1179 -14.1149 -14.1147 -14.1143 -14.1137 -14.1112 -14.1110 -14.1084
   -14.1084 -14.1076 -14.1051 -14.1037 -14.1034 -14.1018 -14.0994 -14.0988
   -14.0960 -14.0919 -10.5039 -10.4965 -10.4644 -10.4569 -10.4410 -10.3930
    -9.6616  -9.6499  -9.4951  -9.4646  -9.4353  -9.3770  -9.3249  -9.3013
    -9.2572  -9.2464  -9.1934  -9.1861  -9.1523  -9.1425  -9.0580  -9.0423
    -9.0289  -9.0238  -9.0111  -8.9764  -8.9325  -8.9168  -8.8987  -8.8969
    -8.8803  -8.8663  -7.6660  -7.6501  -7.0771  -7.0657  -7.0207  -7.0037
    -6.9830  -6.9669  -6.9585  -6.9417  -6.9382  -6.9189  -6.9012  -6.8975
    -6.8701  -6.8314  -5.5521  -5.4106  -5.3748  -5.3629  -5.3415  -5.2104
    -5.1026  -4.9610  -4.9186  -4.8722  -4.8505  -4.8174  -4.7987  -4.7829
    -4.7341  -4.6943  -3.7546  -3.7434  -3.2322  -3.2256  -2.7742  -2.7690
    -2.7538  -2.7449  -2.7382  -2.7280  -2.7248  -2.7212  -2.7176  -2.7055
    -2.6974  -2.6892  -0.8018  -0.7947  -0.7067  -0.6848  -0.3900  -0.3605
    -0.3165  -0.2960  -0.2579  -0.2113  -0.1880  -0.1228   0.0264   0.0538
     0.1599   0.2057   0.3241   0.3577   0.3705   0.3839   0.4149   0.4298
     0.4499   0.4907   0.5200   0.5669   0.5868   0.6336   0.6586   0.7508
     0.8248   0.8757   0.9053   0.9337   0.9383   1.0010   1.0076   1.0507
     1.0706   1.0733   1.0827   1.1034   1.1314   1.1387   1.1504   1.1587
     1.2164   1.2344   1.2500   1.2528   1.2880   1.2954   1.3053   1.3403
     1.3437   1.3626   1.3831   1.4075   1.4290   1.4822   1.5194   1.5235
     1.5603   1.5814   1.6250   1.6376   1.6881   1.7146   1.7482   1.7825
     1.7956   1.8107   1.8792   1.9182

          k = 0.3828 0.3816 0.3762 (300102 PWs)   bands (ev):

   -17.8068 -17.7937 -17.5824 -17.5689 -17.5259 -17.5154 -17.4947 -17.4224
   -15.6895 -15.6765 -14.1705 -14.1699 -14.1635 -14.1603 -14.1517 -14.1502
   -14.1487 -14.1479 -14.1444 -14.1426 -14.1408 -14.1401 -14.1361 -14.1340
   -14.1305 -14.1289 -14.1276 -14.1266 -14.1264 -14.1239 -14.1222 -14.1195
   -14.1179 -14.1149 -14.1147 -14.1143 -14.1137 -14.1112 -14.1110 -14.1084
   -14.1084 -14.1076 -14.1051 -14.1037 -14.1034 -14.1018 -14.0994 -14.0988
   -14.0960 -14.0919 -10.5038 -10.4965 -10.4641 -10.4569 -10.4413 -10.3931
    -9.6589  -9.6471  -9.4707  -9.4423  -9.4206  -9.3829  -9.3778  -9.3577
    -9.3121  -9.2945  -9.1294  -9.1206  -9.0931  -9.0839  -9.0743  -9.0666
    -9.0471  -9.0352  -8.9953  -8.9687  -8.9517  -8.9450  -8.8985  -8.8907
    -8.8828  -8.8725  -7.6663  -7.6504  -7.0771  -7.0657  -7.0209  -7.0041
    -6.9814  -6.9659  -6.9572  -6.9401  -6.9347  -6.9181  -6.9044  -6.8981
    -6.8716  -6.8328  -5.4355  -5.3758  -5.3633  -5.2923  -5.2470  -5.2267
    -5.1132  -5.0970  -5.0485  -4.9396  -4.8560  -4.8434  -4.8012  -4.7911
    -4.7704  -4.7110  -3.7546  -3.7435  -3.2322  -3.2256  -2.7760  -2.7705
    -2.7538  -2.7446  -2.7399  -2.7337  -2.7273  -2.7214  -2.7156  -2.7054
    -2.6895  -2.6808  -0.4577  -0.4376  -0.3969  -0.3729  -0.3189  -0.3094
    -0.2993  -0.2619  -0.2346  -0.2327  -0.1579  -0.1441  -0.0097   0.0161
     0.1722   0.2075   0.2293   0.2597   0.2634   0.2987   0.3160   0.3205
     0.3936   0.4132   0.4278   0.4411   0.6798   0.6989   0.7154   0.7329
     0.7837   0.8078   0.8281   0.8339   0.8741   0.8777   0.9251   0.9369
     0.9674   1.0048   1.0309   1.0477   1.0686   1.0848   1.0968   1.1257
     1.1706   1.2262   1.2352   1.2758   1.2989   1.3033   1.3330   1.3576
     1.3731   1.3926   1.4105   1.4185   1.4516   1.4610   1.4768   1.5066
     1.5336   1.5506   1.5823   1.6055   1.6786   1.6825   1.7234   1.7270
     1.7847   1.7862   1.8074   1.8230

          k =-0.1276-0.1272 0.1254 (300099 PWs)   bands (ev):

   -17.8068 -17.7937 -17.5824 -17.5689 -17.5259 -17.5154 -17.4947 -17.4224
   -15.6895 -15.6765 -14.1726 -14.1725 -14.1614 -14.1589 -14.1541 -14.1525
   -14.1504 -14.1483 -14.1453 -14.1427 -14.1395 -14.1378 -14.1345 -14.1330
   -14.1289 -14.1287 -14.1277 -14.1264 -14.1255 -14.1239 -14.1221 -14.1195
   -14.1179 -14.1149 -14.1147 -14.1143 -14.1137 -14.1112 -14.1109 -14.1084
   -14.1084 -14.1076 -14.1052 -14.1037 -14.1034 -14.1018 -14.0994 -14.0988
   -14.0960 -14.0919 -10.5042 -10.4965 -10.4647 -10.4566 -10.4406 -10.3926
    -9.6729  -9.6545  -9.5503  -9.4303  -9.4190  -9.3736  -9.2998  -9.2693
    -9.2502  -9.2266  -9.1795  -9.1618  -9.1360  -9.1106  -9.0874  -9.0649
    -9.0637  -9.0563  -9.0371  -9.0218  -8.9736  -8.9262  -8.8989  -8.8818
    -8.8420  -8.8325  -7.6665  -7.6501  -7.0766  -7.0649  -7.0210  -7.0039
    -6.9828  -6.9672  -6.9579  -6.9416  -6.9391  -6.9185  -6.9015  -6.8984
    -6.8697  -6.8311  -5.7786  -5.3752  -5.3710  -5.3627  -5.3296  -5.3070
    -4.9519  -4.9155  -4.8956  -4.8590  -4.8552  -4.8054  -4.7987  -4.7848
    -4.7223  -4.4798  -3.7538  -3.7427  -3.2322  -3.2255  -2.7798  -2.7722
    -2.7611  -2.7512  -2.7337  -2.7281  -2.7202  -2.7185  -2.7117  -2.7028
    -2.6979  -2.6884  -0.8474  -0.8011  -0.7253  -0.7191  -0.6584  -0.6236
    -0.6157  -0.5962  -0.5439  -0.4937  -0.4702  -0.4273  -0.0652   0.0292
     0.3378   0.3487   0.3847   0.4263   0.4303   0.4680   0.5406   0.5561
     0.6290   0.6325   0.7180   0.7292   0.7751   0.8200   0.8480   0.8783
     0.8988   0.9290   0.9654   0.9758   1.0049   1.0136   1.0363   1.0446
     1.0759   1.0819   1.1057   1.1121   1.1304   1.1437   1.1807   1.1875
     1.2244   1.2468   1.2695   1.2800   1.2998   1.3284   1.3491   1.3679
     1.3892   1.3937   1.4081   1.4175   1.4613   1.4734   1.5299   1.5569
     1.5653   1.5984   1.6301   1.6611   1.6964   1.7704   1.8316   1.8473
     1.8910   1.9132   1.9462   2.1655

          k =-0.1276 0.1272-0.1254 (300099 PWs)   bands (ev):

   -17.8068 -17.7937 -17.5824 -17.5689 -17.5259 -17.5154 -17.4947 -17.4224
   -15.6895 -15.6765 -14.1726 -14.1725 -14.1614 -14.1589 -14.1541 -14.1525
   -14.1504 -14.1483 -14.1453 -14.1427 -14.1395 -14.1378 -14.1345 -14.1330
   -14.1289 -14.1287 -14.1277 -14.1264 -14.1255 -14.1239 -14.1221 -14.1195
   -14.1179 -14.1149 -14.1147 -14.1143 -14.1137 -14.1112 -14.1110 -14.1084
   -14.1084 -14.1076 -14.1052 -14.1037 -14.1034 -14.1018 -14.0994 -14.0988
   -14.0960 -14.0919 -10.5044 -10.4965 -10.4649 -10.4567 -10.4403 -10.3922
    -9.6748  -9.6541  -9.5503  -9.4283  -9.4160  -9.3721  -9.3069  -9.2655
    -9.2532  -9.2265  -9.1788  -9.1627  -9.1469  -9.1008  -9.0823  -9.0703
    -9.0697  -9.0432  -9.0335  -9.0129  -8.9915  -8.9271  -8.8964  -8.8876
    -8.8403  -8.8291  -7.6664  -7.6501  -7.0767  -7.0650  -7.0209  -7.0039
    -6.9828  -6.9672  -6.9579  -6.9414  -6.9393  -6.9185  -6.9014  -6.8985
    -6.8697  -6.8311  -5.7785  -5.3746  -5.3697  -5.3628  -5.3320  -5.3069
    -4.9513  -4.9208  -4.8936  -4.8607  -4.8536  -4.8067  -4.7979  -4.7827
    -4.7206  -4.4796  -3.7539  -3.7427  -3.2322  -3.2255  -2.7802  -2.7717
    -2.7612  -2.7518  -2.7338  -2.7281  -2.7195  -2.7185  -2.7122  -2.7030
    -2.6974  -2.6880  -0.8503  -0.8020  -0.7714  -0.7254  -0.6348  -0.6230
    -0.6031  -0.5983  -0.5428  -0.4632  -0.4624  -0.4256  -0.0660   0.0302
     0.3289   0.3611   0.3888   0.4172   0.4221   0.4705   0.5297   0.5599
     0.6257   0.6349   0.6966   0.7268   0.7797   0.8128   0.8383   0.8651
     0.8763   0.9359   0.9655   0.9783   0.9853   1.0069   1.0409   1.0663
     1.0766   1.0884   1.1025   1.1386   1.1426   1.1562   1.1733   1.2075
     1.2196   1.2468   1.2720   1.2802   1.3028   1.3390   1.3634   1.3699
     1.3796   1.3907   1.4081   1.4188   1.4394   1.4666   1.5323   1.5414
     1.5825   1.6073   1.6160   1.6604   1.6953   1.7701   1.8121   1.8373
     1.8932   1.9325   1.9541   2.1843

          k = 0.1276-0.1272-0.1254 (300099 PWs)   bands (ev):

   -17.8068 -17.7937 -17.5824 -17.5689 -17.5259 -17.5154 -17.4947 -17.4224
   -15.6895 -15.6765 -14.1726 -14.1725 -14.1614 -14.1589 -14.1541 -14.1525
   -14.1504 -14.1483 -14.1453 -14.1427 -14.1395 -14.1378 -14.1345 -14.1330
   -14.1289 -14.1287 -14.1277 -14.1264 -14.1255 -14.1239 -14.1221 -14.1195
   -14.1179 -14.1149 -14.1147 -14.1143 -14.1137 -14.1112 -14.1110 -14.1084
   -14.1084 -14.1076 -14.1052 -14.1037 -14.1034 -14.1018 -14.0994 -14.0988
   -14.0960 -14.0919 -10.5044 -10.4966 -10.4649 -10.4566 -10.4403 -10.3922
    -9.6746  -9.6542  -9.5506  -9.4297  -9.4136  -9.3730  -9.3063  -9.2661
    -9.2537  -9.2249  -9.1800  -9.1621  -9.1478  -9.1003  -9.0807  -9.0725
    -9.0700  -9.0420  -9.0351  -9.0114  -8.9920  -8.9265  -8.8956  -8.8885
    -8.8403  -8.8292  -7.6665  -7.6501  -7.0767  -7.0650  -7.0208  -7.0039
    -6.9828  -6.9671  -6.9581  -6.9416  -6.9393  -6.9183  -6.9015  -6.8984
    -6.8696  -6.8311  -5.7785  -5.3757  -5.3695  -5.3622  -5.3319  -5.3067
    -4.9520  -4.9208  -4.8928  -4.8606  -4.8537  -4.8066  -4.7979  -4.7828
    -4.7206  -4.4796  -3.7539  -3.7427  -3.2322  -3.2255  -2.7822  -2.7719
    -2.7600  -2.7513  -2.7326  -2.7277  -2.7196  -2.7187  -2.7126  -2.7027
    -2.6982  -2.6880  -0.8497  -0.8015  -0.7726  -0.7255  -0.6288  -0.6188
    -0.6093  -0.6047  -0.5362  -0.4674  -0.4638  -0.4252  -0.0658   0.0301
     0.3282   0.3605   0.3899   0.4168   0.4226   0.4713   0.5316   0.5590
     0.6250   0.6347   0.6986   0.7226   0.7761   0.8183   0.8467   0.8681
     0.8719   0.9311   0.9655   0.9792   0.9905   1.0098   1.0378   1.0615
     1.0776   1.0908   1.0999   1.1352   1.1365   1.1554   1.1726   1.2138
     1.2196   1.2464   1.2696   1.2852   1.2999   1.3417   1.3653   1.3660
     1.3820   1.3944   1.4031   1.4183   1.4421   1.4605   1.5348   1.5411
     1.5803   1.6074   1.6188   1.6606   1.6951   1.7728   1.8097   1.8358
     1.8958   1.9310   1.9540   2.1853

          k =-0.1276-0.1272 0.3762 (300184 PWs)   bands (ev):

   -17.8068 -17.7937 -17.5824 -17.5689 -17.5259 -17.5154 -17.4947 -17.4224
   -15.6895 -15.6765 -14.1708 -14.1701 -14.1638 -14.1607 -14.1524 -14.1514
   -14.1504 -14.1475 -14.1453 -14.1446 -14.1402 -14.1389 -14.1346 -14.1330
   -14.1289 -14.1287 -14.1277 -14.1264 -14.1255 -14.1239 -14.1221 -14.1195
   -14.1179 -14.1149 -14.1147 -14.1143 -14.1137 -14.1112 -14.1109 -14.1084
   -14.1084 -14.1076 -14.1052 -14.1037 -14.1034 -14.1018 -14.0994 -14.0988
   -14.0960 -14.0919 -10.5041 -10.4963 -10.4644 -10.4567 -10.4409 -10.3926
    -9.6644  -9.6519  -9.5298  -9.4812  -9.3983  -9.3527  -9.3409  -9.3051
    -9.2741  -9.2575  -9.1314  -9.1107  -9.1020  -9.1004  -9.0898  -9.0778
    -9.0746  -9.0591  -9.0079  -8.9906  -8.9629  -8.9467  -8.9321  -8.9056
    -8.8390  -8.8348  -7.6666  -7.6506  -7.0766  -7.0649  -7.0211  -7.0042
    -6.9812  -6.9657  -6.9572  -6.9397  -6.9355  -6.9184  -6.9046  -6.8990
    -6.8714  -6.8327  -5.6546  -5.4639  -5.3721  -5.3602  -5.2513  -5.2146
    -5.0631  -5.0347  -4.8812  -4.8590  -4.8440  -4.8046  -4.8005  -4.7758
    -4.7215  -4.6212  -3.7540  -3.7429  -3.2321  -3.2255  -2.7767  -2.7726
    -2.7605  -2.7444  -2.7396  -2.7337  -2.7268  -2.7216  -2.7128  -2.7024
    -2.6893  -2.6807  -0.6902  -0.6527  -0.6490  -0.6099  -0.5725  -0.5433
    -0.5239  -0.4725  -0.3776  -0.3515  -0.2872  -0.2219  -0.0575   0.0043
     0.1982   0.2604   0.3097   0.3603   0.4139   0.4306   0.4374   0.4720
     0.4780   0.4995   0.5466   0.5806   0.5961   0.6127   0.8107   0.8371
     0.8491   0.8698   0.9527   0.9563   0.9704   0.9951   1.0314   1.0348
     1.0546   1.0608   1.1053   1.1072   1.1468   1.1539   1.2207   1.2248
     1.2485   1.2607   1.2660   1.2910   1.2952   1.3275   1.3494   1.3751
     1.4040   1.4138   1.4337   1.4394   1.4499   1.4623   1.5095   1.5230
     1.5614   1.5638   1.5942   1.6093   1.6864   1.7376   1.7415   1.7681
     1.8306   1.8359   1.9264   1.9857

          k =-0.1276 0.1272-0.3762 (300184 PWs)   bands (ev):

   -17.8068 -17.7937 -17.5824 -17.5689 -17.5259 -17.5154 -17.4947 -17.4224
   -15.6895 -15.6765 -14.1708 -14.1701 -14.1638 -14.1607 -14.1524 -14.1514
   -14.1504 -14.1475 -14.1453 -14.1446 -14.1402 -14.1389 -14.1346 -14.1330
   -14.1289 -14.1287 -14.1277 -14.1264 -14.1255 -14.1239 -14.1221 -14.1195
   -14.1179 -14.1149 -14.1147 -14.1143 -14.1137 -14.1112 -14.1109 -14.1084
   -14.1084 -14.1076 -14.1052 -14.1037 -14.1034 -14.1018 -14.0994 -14.0988
   -14.0960 -14.0919 -10.5043 -10.4964 -10.4646 -10.4567 -10.4406 -10.3923
    -9.6654  -9.6521  -9.5301  -9.4810  -9.3959  -9.3503  -9.3402  -9.3062
    -9.2763  -9.2597  -9.1283  -9.1117  -9.1044  -9.1004  -9.0887  -9.0793
    -9.0743  -9.0557  -9.0112  -8.9815  -8.9646  -8.9545  -8.9254  -8.9152
    -8.8368  -8.8320  -7.6665  -7.6506  -7.0767  -7.0650  -7.0211  -7.0042
    -6.9813  -6.9657  -6.9572  -6.9397  -6.9355  -6.9184  -6.9045  -6.8991
    -6.8714  -6.8327  -5.6540  -5.4631  -5.3725  -5.3607  -5.2500  -5.2170
    -5.0632  -5.0372  -4.8800  -4.8596  -4.8430  -4.8057  -4.7994  -4.7753
    -4.7199  -4.6212  -3.7540  -3.7429  -3.2321  -3.2255  -2.7771  -2.7721
    -2.7604  -2.7452  -2.7393  -2.7341  -2.7258  -2.7222  -2.7128  -2.7024
    -2.6891  -2.6806  -0.7405  -0.6963  -0.6092  -0.5901  -0.5477  -0.5300
    -0.5215  -0.4658  -0.3793  -0.3403  -0.2878  -0.2210  -0.0600   0.0058
     0.1953   0.2604   0.3013   0.3640   0.4170   0.4239   0.4291   0.4633
     0.4898   0.5030   0.5443   0.5774   0.5871   0.6150   0.8037   0.8323
     0.8497   0.8563   0.9301   0.9521   0.9892   0.9966   0.9998   1.0261
     1.0431   1.0727   1.0978   1.1130   1.1869   1.1926   1.2140   1.2386
     1.2521   1.2662   1.2739   1.2913   1.3007   1.3109   1.3395   1.3714
     1.4015   1.4041   1.4307   1.4462   1.4524   1.4680   1.5057   1.5311
     1.5694   1.5763   1.5840   1.6178   1.6762   1.7280   1.7380   1.7599
     1.8055   1.8125   1.9648   2.0148

          k = 0.1276-0.1272-0.3762 (300184 PWs)   bands (ev):

   -17.8068 -17.7937 -17.5824 -17.5689 -17.5259 -17.5154 -17.4947 -17.4224
   -15.6895 -15.6765 -14.1708 -14.1701 -14.1638 -14.1607 -14.1524 -14.1514
   -14.1504 -14.1475 -14.1453 -14.1446 -14.1402 -14.1389 -14.1346 -14.1330
   -14.1289 -14.1287 -14.1277 -14.1264 -14.1255 -14.1239 -14.1221 -14.1195
   -14.1179 -14.1149 -14.1147 -14.1143 -14.1137 -14.1112 -14.1109 -14.1084
   -14.1084 -14.1076 -14.1052 -14.1037 -14.1034 -14.1018 -14.0994 -14.0988
   -14.0960 -14.0919 -10.5043 -10.4964 -10.4646 -10.4567 -10.4406 -10.3923
    -9.6651  -9.6524  -9.5310  -9.4800  -9.3963  -9.3507  -9.3391  -9.3062
    -9.2764  -9.2600  -9.1301  -9.1113  -9.1031  -9.0978  -9.0897  -9.0824
    -9.0722  -9.0560  -9.0144  -8.9763  -8.9687  -8.9523  -8.9241  -8.9168
    -8.8369  -8.8321  -7.6666  -7.6506  -7.0767  -7.0650  -7.0210  -7.0042
    -6.9812  -6.9656  -6.9574  -6.9399  -6.9355  -6.9181  -6.9046  -6.8990
    -6.8714  -6.8327  -5.6540  -5.4634  -5.3725  -5.3606  -5.2497  -5.2170
    -5.0635  -5.0375  -4.8795  -4.8597  -4.8426  -4.8058  -4.7996  -4.7754
    -4.7197  -4.6214  -3.7540  -3.7429  -3.2321  -3.2255  -2.7794  -2.7722
    -2.7592  -2.7440  -2.7393  -2.7332  -2.7256  -2.7227  -2.7131  -2.7024
    -2.6895  -2.6806  -0.7419  -0.6969  -0.6059  -0.5924  -0.5403  -0.5335
    -0.5187  -0.4631  -0.3835  -0.3459  -0.2900  -0.2223  -0.0589   0.0060
     0.1952   0.2610   0.3056   0.3657   0.4193   0.4229   0.4317   0.4674
     0.4859   0.4956   0.5456   0.5788   0.5878   0.6133   0.8041   0.8285
     0.8527   0.8551   0.9270   0.9573   0.9899   0.9979   1.0046   1.0260
     1.0453   1.0662   1.0921   1.1157   1.1815   1.1913   1.2130   1.2377
     1.2551   1.2625   1.2735   1.2936   1.2986   1.3140   1.3508   1.3631
     1.4051   1.4127   1.4298   1.4449   1.4512   1.4561   1.5099   1.5304
     1.5689   1.5726   1.5869   1.6199   1.6782   1.7299   1.7358   1.7558
     1.8072   1.8140   1.9622   2.0175

          k =-0.1276-0.3816 0.1254 (300079 PWs)   bands (ev):

   -17.8068 -17.7937 -17.5824 -17.5689 -17.5259 -17.5154 -17.4947 -17.4224
   -15.6895 -15.6765 -14.1725 -14.1724 -14.1612 -14.1586 -14.1536 -14.1526
   -14.1495 -14.1484 -14.1440 -14.1429 -14.1396 -14.1386 -14.1350 -14.1334
   -14.1295 -14.1288 -14.1277 -14.1264 -14.1260 -14.1239 -14.1221 -14.1195
   -14.1179 -14.1149 -14.1147 -14.1143 -14.1137 -14.1112 -14.1110 -14.1084
   -14.1084 -14.1076 -14.1051 -14.1037 -14.1034 -14.1018 -14.0994 -14.0988
   -14.0960 -14.0919 -10.5039 -10.4962 -10.4646 -10.4565 -10.4410 -10.3930
    -9.6692  -9.6578  -9.5162  -9.4640  -9.4012  -9.3530  -9.3414  -9.2997
    -9.2468  -9.2442  -9.1805  -9.1695  -9.1315  -9.1296  -9.0769  -9.0620
    -9.0449  -9.0372  -9.0267  -9.0119  -8.9319  -8.9185  -8.9131  -8.8763
    -8.8644  -8.8523  -7.6659  -7.6500  -7.0766  -7.0649  -7.0208  -7.0038
    -6.9829  -6.9668  -6.9584  -6.9415  -6.9392  -6.9189  -6.9016  -6.8986
    -6.8698  -6.8312  -5.6626  -5.4866  -5.3733  -5.3615  -5.2439  -5.2009
    -5.0813  -5.0309  -4.8769  -4.8569  -4.8335  -4.8032  -4.7927  -4.7670
    -4.7161  -4.6044  -3.7540  -3.7428  -3.2322  -3.2255  -2.7743  -2.7702
    -2.7603  -2.7459  -2.7374  -2.7279  -2.7237  -2.7188  -2.7140  -2.7059
    -2.6973  -2.6891  -0.8159  -0.7946  -0.7112  -0.6664  -0.6407  -0.6100
    -0.5486  -0.5011  -0.3392  -0.2651  -0.1711  -0.1383   0.0030   0.0058
     0.1716   0.2663   0.3474   0.3814   0.3854   0.4175   0.4408   0.4929
     0.4949   0.5395   0.5849   0.6244   0.6656   0.7588   0.7882   0.8131
     0.8312   0.8565   0.9488   0.9540   0.9915   1.0181   1.0300   1.0343
     1.0453   1.0729   1.1021   1.1293   1.1522   1.1584   1.1804   1.1832
     1.2301   1.2321   1.2626   1.3012   1.3090   1.3187   1.3401   1.3595
     1.3817   1.3888   1.4154   1.4400   1.4874   1.5248   1.5348   1.5374
     1.5480   1.5545   1.6082   1.6271   1.6965   1.7385   1.7814   1.7830
     1.8190   1.8270   1.9700   2.0133

          k =-0.1276 0.3816-0.1254 (300079 PWs)   bands (ev):

   -17.8068 -17.7937 -17.5824 -17.5689 -17.5259 -17.5154 -17.4947 -17.4224
   -15.6895 -15.6765 -14.1725 -14.1724 -14.1612 -14.1586 -14.1536 -14.1526
   -14.1495 -14.1484 -14.1440 -14.1429 -14.1396 -14.1386 -14.1350 -14.1334
   -14.1295 -14.1288 -14.1277 -14.1264 -14.1260 -14.1239 -14.1221 -14.1195
   -14.1179 -14.1149 -14.1147 -14.1143 -14.1137 -14.1112 -14.1110 -14.1084
   -14.1084 -14.1076 -14.1051 -14.1037 -14.1034 -14.1018 -14.0994 -14.0988
   -14.0960 -14.0919 -10.5042 -10.4963 -10.4648 -10.4566 -10.4407 -10.3926
    -9.6714  -9.6570  -9.5174  -9.4620  -9.3895  -9.3564  -9.3510  -9.2968
    -9.2528  -9.2403  -9.1812  -9.1711  -9.1459  -9.1125  -9.0722  -9.0683
    -9.0418  -9.0345  -9.0256  -9.0100  -8.9361  -8.9247  -8.9145  -8.8795
    -8.8644  -8.8443  -7.6659  -7.6500  -7.0766  -7.0650  -7.0206  -7.0038
    -6.9828  -6.9668  -6.9584  -6.9412  -6.9395  -6.9189  -6.9015  -6.8986
    -6.8698  -6.8312  -5.6622  -5.4866  -5.3734  -5.3615  -5.2461  -5.1994
    -5.0793  -5.0341  -4.8792  -4.8571  -4.8337  -4.8035  -4.7908  -4.7645
    -4.7155  -4.6043  -3.7540  -3.7428  -3.2322  -3.2255  -2.7747  -2.7696
    -2.7603  -2.7472  -2.7374  -2.7270  -2.7234  -2.7191  -2.7142  -2.7060
    -2.6970  -2.6886  -0.8248  -0.7857  -0.7136  -0.6888  -0.6607  -0.5970
    -0.5636  -0.4881  -0.3031  -0.2449  -0.1492  -0.1266   0.0049   0.0120
     0.1610   0.2243   0.3466   0.3597   0.4007   0.4120   0.4264   0.4776
     0.5224   0.5394   0.5604   0.6420   0.6620   0.7202   0.7602   0.8186
     0.8388   0.8586   0.9440   0.9770   0.9957   0.9991   1.0379   1.0431
     1.0614   1.0959   1.0983   1.1325   1.1445   1.1623   1.1993   1.2025
     1.2171   1.2413   1.2811   1.2833   1.2997   1.3184   1.3516   1.3644
     1.3761   1.3807   1.4406   1.4438   1.4739   1.4758   1.5158   1.5230
     1.5698   1.5952   1.6117   1.6299   1.6632   1.7332   1.7704   1.7908
     1.7933   1.8708   1.9519   2.0455

          k = 0.1276-0.3816-0.1254 (300079 PWs)   bands (ev):

   -17.8068 -17.7937 -17.5824 -17.5689 -17.5259 -17.5154 -17.4947 -17.4224
   -15.6895 -15.6765 -14.1725 -14.1724 -14.1612 -14.1586 -14.1536 -14.1526
   -14.1495 -14.1484 -14.1440 -14.1429 -14.1396 -14.1386 -14.1350 -14.1334
   -14.1295 -14.1288 -14.1277 -14.1264 -14.1260 -14.1239 -14.1221 -14.1195
   -14.1179 -14.1149 -14.1147 -14.1143 -14.1137 -14.1112 -14.1110 -14.1084
   -14.1084 -14.1076 -14.1051 -14.1037 -14.1034 -14.1018 -14.0994 -14.0988
   -14.0960 -14.0919 -10.5042 -10.4963 -10.4648 -10.4566 -10.4407 -10.3926
    -9.6713  -9.6571  -9.5182  -9.4612  -9.3887  -9.3567  -9.3508  -9.2974
    -9.2538  -9.2399  -9.1810  -9.1702  -9.1455  -9.1129  -9.0709  -9.0684
    -9.0451  -9.0344  -9.0259  -9.0084  -8.9374  -8.9224  -8.9141  -8.8804
    -8.8645  -8.8443  -7.6659  -7.6500  -7.0766  -7.0651  -7.0206  -7.0038
    -6.9828  -6.9667  -6.9586  -6.9414  -6.9394  -6.9187  -6.9016  -6.8986
    -6.8698  -6.8312  -5.6622  -5.4870  -5.3733  -5.3614  -5.2459  -5.1991
    -5.0797  -5.0341  -4.8798  -4.8573  -4.8334  -4.8034  -4.7908  -4.7643
    -4.7149  -4.6047  -3.7540  -3.7428  -3.2322  -3.2255  -2.7779  -2.7691
    -2.7587  -2.7463  -2.7360  -2.7284  -2.7219  -2.7181  -2.7165  -2.7055
    -2.6976  -2.6888  -0.8242  -0.7841  -0.7135  -0.6954  -0.6548  -0.5962
    -0.5659  -0.4890  -0.3032  -0.2454  -0.1485  -0.1273   0.0055   0.0122
     0.1593   0.2247   0.3452   0.3562   0.4034   0.4169   0.4267   0.4792
     0.5192   0.5411   0.5625   0.6420   0.6601   0.7220   0.7586   0.8207
     0.8369   0.8581   0.9383   0.9820   1.0031   1.0061   1.0348   1.0362
     1.0623   1.0897   1.0964   1.1330   1.1407   1.1577   1.1981   1.2137
     1.2153   1.2461   1.2792   1.2888   1.2974   1.3119   1.3487   1.3677
     1.3715   1.3876   1.4372   1.4405   1.4746   1.4836   1.5112   1.5266
     1.5692   1.5884   1.6173   1.6295   1.6636   1.7319   1.7674   1.7929
     1.7966   1.8699   1.9514   2.0459

          k =-0.1276-0.3816 0.3762 (300092 PWs)   bands (ev):

   -17.8068 -17.7937 -17.5824 -17.5689 -17.5259 -17.5154 -17.4947 -17.4224
   -15.6895 -15.6765 -14.1706 -14.1700 -14.1637 -14.1604 -14.1520 -14.1510
   -14.1495 -14.1477 -14.1448 -14.1439 -14.1404 -14.1397 -14.1350 -14.1334
   -14.1295 -14.1288 -14.1277 -14.1264 -14.1260 -14.1239 -14.1221 -14.1195
   -14.1179 -14.1149 -14.1147 -14.1143 -14.1137 -14.1112 -14.1110 -14.1084
   -14.1084 -14.1076 -14.1051 -14.1037 -14.1034 -14.1018 -14.0994 -14.0988
   -14.0960 -14.0919 -10.5039 -10.4961 -10.4642 -10.4565 -10.4413 -10.3930
    -9.6644  -9.6529  -9.4974  -9.4700  -9.4000  -9.3681  -9.3615  -9.3289
    -9.2911  -9.2735  -9.1267  -9.1161  -9.0996  -9.0966  -9.0846  -9.0665
    -9.0590  -9.0541  -8.9977  -8.9950  -8.9589  -8.9442  -8.9080  -8.8857
    -8.8636  -8.8571  -7.6662  -7.6503  -7.0766  -7.0649  -7.0210  -7.0041
    -6.9813  -6.9658  -6.9572  -6.9400  -6.9355  -6.9182  -6.9046  -6.8991
    -6.8716  -6.8328  -5.5422  -5.3834  -5.3671  -5.3633  -5.3381  -5.1786
    -5.1317  -4.9816  -4.9534  -4.8734  -4.8562  -4.8163  -4.8004  -4.7867
    -4.7466  -4.7011  -3.7541  -3.7429  -3.2321  -3.2255  -2.7771  -2.7708
    -2.7588  -2.7441  -2.7397  -2.7318  -2.7274  -2.7194  -2.7152  -2.7060
    -2.6889  -2.6804  -0.6326  -0.6196  -0.5600  -0.5384  -0.4539  -0.4094
    -0.3415  -0.2778  -0.2561  -0.2413  -0.1773  -0.1701  -0.0108  -0.0058
     0.1676   0.1885   0.2533   0.2883   0.3241   0.3363   0.3463   0.3775
     0.4628   0.4760   0.5020   0.5173   0.6471   0.6511   0.7282   0.7390
     0.7789   0.7897   0.8589   0.8633   0.8788   0.8920   0.9801   1.0046
     1.0173   1.0206   1.0795   1.0958   1.1201   1.1234   1.1958   1.2082
     1.2702   1.2727   1.2766   1.2991   1.3189   1.3259   1.3601   1.3687
     1.3979   1.4078   1.4498   1.4546   1.4844   1.4876   1.4998   1.5276
     1.5479   1.5604   1.5725   1.6044   1.6553   1.6794   1.7441   1.7643
     1.7886   1.7950   1.8447   1.8462

          k =-0.1276 0.3816-0.3762 (300092 PWs)   bands (ev):

   -17.8068 -17.7937 -17.5824 -17.5689 -17.5259 -17.5154 -17.4947 -17.4224
   -15.6895 -15.6765 -14.1706 -14.1700 -14.1637 -14.1604 -14.1520 -14.1510
   -14.1496 -14.1477 -14.1448 -14.1438 -14.1404 -14.1397 -14.1350 -14.1334
   -14.1295 -14.1288 -14.1277 -14.1264 -14.1260 -14.1239 -14.1221 -14.1195
   -14.1179 -14.1149 -14.1147 -14.1143 -14.1137 -14.1112 -14.1110 -14.1084
   -14.1084 -14.1076 -14.1051 -14.1037 -14.1034 -14.1018 -14.0994 -14.0988
   -14.0960 -14.0919 -10.5041 -10.4962 -10.4644 -10.4566 -10.4410 -10.3927
    -9.6653  -9.6532  -9.4987  -9.4689  -9.3994  -9.3668  -9.3539  -9.3340
    -9.2897  -9.2790  -9.1223  -9.1180  -9.1050  -9.0971  -9.0748  -9.0736
    -9.0608  -9.0489  -9.0055  -8.9850  -8.9590  -8.9410  -8.9178  -8.8950
    -8.8584  -8.8504  -7.6661  -7.6502  -7.0766  -7.0651  -7.0209  -7.0041
    -6.9813  -6.9658  -6.9572  -6.9400  -6.9356  -6.9182  -6.9045  -6.8992
    -6.8716  -6.8328  -5.5409  -5.3833  -5.3678  -5.3620  -5.3388  -5.1805
    -5.1347  -4.9798  -4.9560  -4.8685  -4.8562  -4.8158  -4.8007  -4.7875
    -4.7474  -4.6998  -3.7541  -3.7430  -3.2321  -3.2255  -2.7765  -2.7717
    -2.7581  -2.7452  -2.7392  -2.7325  -2.7264  -2.7199  -2.7152  -2.7060
    -2.6888  -2.6803  -0.6689  -0.6345  -0.5651  -0.5241  -0.4434  -0.3960
    -0.3418  -0.2761  -0.2364  -0.2038  -0.1664  -0.1599  -0.0102  -0.0059
     0.1581   0.1771   0.2492   0.2625   0.3059   0.3250   0.3424   0.3684
     0.4688   0.4770   0.5197   0.5230   0.6383   0.6432   0.7240   0.7302
     0.7771   0.7864   0.8501   0.8708   0.8717   0.8836   0.9782   0.9813
     1.0172   1.0297   1.0910   1.1019   1.1504   1.1524   1.1940   1.2098
     1.2675   1.2731   1.2902   1.2951   1.3174   1.3262   1.3668   1.3817
     1.3949   1.4102   1.4288   1.4561   1.4627   1.4884   1.5008   1.5207
     1.5633   1.5691   1.5881   1.6130   1.6630   1.6837   1.7120   1.7147
     1.7560   1.7703   1.8853   1.9064

          k = 0.1276-0.3816-0.3762 (300092 PWs)   bands (ev):

   -17.8068 -17.7937 -17.5824 -17.5689 -17.5259 -17.5154 -17.4947 -17.4224
   -15.6895 -15.6765 -14.1706 -14.1700 -14.1637 -14.1604 -14.1520 -14.1510
   -14.1496 -14.1477 -14.1448 -14.1438 -14.1404 -14.1397 -14.1350 -14.1334
   -14.1295 -14.1288 -14.1277 -14.1264 -14.1260 -14.1239 -14.1221 -14.1195
   -14.1179 -14.1149 -14.1147 -14.1143 -14.1137 -14.1112 -14.1110 -14.1084
   -14.1084 -14.1076 -14.1051 -14.1037 -14.1034 -14.1018 -14.0994 -14.0988
   -14.0960 -14.0919 -10.5041 -10.4962 -10.4644 -10.4565 -10.4410 -10.3927
    -9.6651  -9.6533  -9.5011  -9.4658  -9.3985  -9.3684  -9.3558  -9.3312
    -9.2911  -9.2786  -9.1232  -9.1191  -9.1006  -9.0955  -9.0793  -9.0732
    -9.0597  -9.0498  -9.0086  -8.9813  -8.9611  -8.9401  -8.9146  -8.8975
    -8.8587  -8.8502  -7.6662  -7.6502  -7.0766  -7.0651  -7.0209  -7.0041
    -6.9813  -6.9657  -6.9574  -6.9402  -6.9355  -6.9179  -6.9046  -6.8992
    -6.8716  -6.8328  -5.5406  -5.3891  -5.3681  -5.3567  -5.3383  -5.1805
    -5.1335  -4.9870  -4.9508  -4.8679  -4.8558  -4.8160  -4.8006  -4.7874
    -4.7469  -4.7006  -3.7541  -3.7430  -3.2321  -3.2255  -2.7794  -2.7706
    -2.7576  -2.7430  -2.7397  -2.7318  -2.7264  -2.7200  -2.7158  -2.7059
    -2.6891  -2.6804  -0.6717  -0.6304  -0.5663  -0.5217  -0.4415  -0.3934
    -0.3452  -0.2813  -0.2362  -0.2020  -0.1718  -0.1627  -0.0081  -0.0040
     0.1616   0.1723   0.2575   0.2631   0.2982   0.3251   0.3417   0.3841
     0.4629   0.4762   0.5199   0.5249   0.6309   0.6493   0.7162   0.7237
     0.7821   0.7955   0.8479   0.8649   0.8670   0.8922   0.9829   0.9879
     1.0152   1.0201   1.0881   1.1017   1.1483   1.1556   1.1878   1.2119
     1.2694   1.2783   1.2890   1.2963   1.3187   1.3217   1.3695   1.3769
     1.4005   1.4134   1.4331   1.4440   1.4655   1.4878   1.5049   1.5162
     1.5633   1.5667   1.5925   1.6116   1.6685   1.6765   1.7102   1.7179
     1.7468   1.7823   1.8790   1.9108

          k =-0.3828-0.1272 0.1254 (300128 PWs)   bands (ev):

   -17.8068 -17.7937 -17.5824 -17.5689 -17.5259 -17.5154 -17.4947 -17.4224
   -15.6895 -15.6765 -14.1725 -14.1725 -14.1612 -14.1588 -14.1535 -14.1526
   -14.1492 -14.1483 -14.1439 -14.1423 -14.1403 -14.1387 -14.1347 -14.1334
   -14.1297 -14.1290 -14.1276 -14.1264 -14.1260 -14.1239 -14.1221 -14.1195
   -14.1179 -14.1149 -14.1147 -14.1143 -14.1137 -14.1112 -14.1110 -14.1084
   -14.1084 -14.1076 -14.1052 -14.1037 -14.1034 -14.1018 -14.0994 -14.0988
   -14.0960 -14.0919 -10.5037 -10.4967 -10.4641 -10.4570 -10.4413 -10.3933
    -9.6595  -9.6479  -9.5320  -9.4866  -9.3939  -9.3470  -9.3376  -9.2982
    -9.2483  -9.2470  -9.1782  -9.1656  -9.1319  -9.1305  -9.0805  -9.0716
    -9.0480  -9.0281  -9.0130  -9.0124  -8.9284  -8.9188  -8.9143  -8.8748
    -8.8677  -8.8576  -7.6664  -7.6505  -7.0772  -7.0659  -7.0207  -7.0039
    -6.9828  -6.9673  -6.9579  -6.9414  -6.9383  -6.9187  -6.9012  -6.8976
    -6.8698  -6.8312  -5.6641  -5.4907  -5.3744  -5.3627  -5.2382  -5.2032
    -5.0785  -5.0365  -4.8707  -4.8618  -4.8247  -4.8090  -4.7931  -4.7619
    -4.7154  -4.6017  -3.7545  -3.7433  -3.2322  -3.2256  -2.7766  -2.7712
    -2.7560  -2.7507  -2.7350  -2.7315  -2.7212  -2.7188  -2.7140  -2.7029
    -2.6976  -2.6894  -0.8309  -0.8161  -0.7001  -0.6948  -0.6620  -0.6498
    -0.5230  -0.5026  -0.3039  -0.2718  -0.2197  -0.1521  -0.0118   0.0715
     0.1984   0.2808   0.3436   0.3678   0.4036   0.4397   0.4464   0.4903
     0.5304   0.5462   0.6087   0.6334   0.6809   0.7540   0.7840   0.8194
     0.8327   0.8899   0.9244   0.9362   0.9813   1.0216   1.0279   1.0603
     1.0778   1.0804   1.0969   1.1082   1.1297   1.1458   1.1801   1.1961
     1.2348   1.2647   1.2745   1.2791   1.3035   1.3052   1.3424   1.3516
     1.3592   1.3701   1.4163   1.4266   1.4744   1.4824   1.5233   1.5380
     1.5492   1.5666   1.6089   1.6391   1.6900   1.7360   1.7994   1.8005
     1.8166   1.8573   1.9608   2.0152

          k =-0.3828 0.1272-0.1254 (300128 PWs)   bands (ev):

   -17.8068 -17.7937 -17.5824 -17.5689 -17.5259 -17.5154 -17.4947 -17.4224
   -15.6895 -15.6765 -14.1725 -14.1725 -14.1612 -14.1588 -14.1535 -14.1526
   -14.1492 -14.1483 -14.1439 -14.1423 -14.1403 -14.1387 -14.1347 -14.1334
   -14.1297 -14.1290 -14.1276 -14.1264 -14.1260 -14.1239 -14.1221 -14.1195
   -14.1179 -14.1149 -14.1147 -14.1143 -14.1137 -14.1112 -14.1110 -14.1084
   -14.1084 -14.1076 -14.1052 -14.1037 -14.1034 -14.1018 -14.0994 -14.0988
   -14.0960 -14.0919 -10.5039 -10.4968 -10.4644 -10.4570 -10.4409 -10.3930
    -9.6614  -9.6477  -9.5347  -9.4809  -9.3861  -9.3505  -9.3445  -9.2957
    -9.2544  -9.2440  -9.1767  -9.1682  -9.1463  -9.1135  -9.0776  -9.0748
    -9.0466  -9.0196  -9.0154  -9.0123  -8.9358  -8.9221  -8.9144  -8.8831
    -8.8650  -8.8482  -7.6664  -7.6504  -7.0773  -7.0660  -7.0205  -7.0039
    -6.9828  -6.9673  -6.9579  -6.9413  -6.9385  -6.9187  -6.9012  -6.8977
    -6.8698  -6.8312  -5.6636  -5.4910  -5.3744  -5.3626  -5.2401  -5.2018
    -5.0768  -5.0392  -4.8740  -4.8609  -4.8272  -4.8080  -4.7916  -4.7595
    -4.7135  -4.6021  -3.7545  -3.7433  -3.2322  -3.2256  -2.7772  -2.7704
    -2.7562  -2.7513  -2.7353  -2.7314  -2.7200  -2.7192  -2.7145  -2.7031
    -2.6971  -2.6890  -0.8373  -0.8113  -0.7298  -0.6962  -0.6575  -0.6418
    -0.5508  -0.4884  -0.2723  -0.2516  -0.1953  -0.1416  -0.0098   0.0788
     0.1907   0.2375   0.3444   0.3684   0.3894   0.4165   0.4577   0.4711
     0.5321   0.5762   0.5980   0.6386   0.6801   0.7197   0.7571   0.8002
     0.8493   0.8782   0.9380   0.9636   0.9968   0.9997   1.0472   1.0684
     1.0702   1.0840   1.1143   1.1207   1.1368   1.1388   1.1897   1.1963
     1.2327   1.2588   1.2624   1.2861   1.2949   1.3330   1.3398   1.3536
     1.3641   1.3708   1.4125   1.4460   1.4513   1.4889   1.4994   1.5057
     1.5663   1.5772   1.6220   1.6285   1.6935   1.7283   1.7822   1.7987
     1.8107   1.8867   1.9405   2.0466

          k = 0.3828-0.1272-0.1254 (300128 PWs)   bands (ev):

   -17.8068 -17.7937 -17.5824 -17.5689 -17.5259 -17.5154 -17.4947 -17.4224
   -15.6895 -15.6765 -14.1725 -14.1725 -14.1612 -14.1588 -14.1535 -14.1526
   -14.1492 -14.1483 -14.1439 -14.1423 -14.1403 -14.1387 -14.1347 -14.1334
   -14.1297 -14.1290 -14.1276 -14.1264 -14.1260 -14.1239 -14.1221 -14.1195
   -14.1179 -14.1149 -14.1147 -14.1143 -14.1137 -14.1112 -14.1110 -14.1084
   -14.1084 -14.1076 -14.1052 -14.1037 -14.1034 -14.1018 -14.0994 -14.0988
   -14.0960 -14.0919 -10.5039 -10.4968 -10.4643 -10.4570 -10.4410 -10.3930
    -9.6611  -9.6479  -9.5349  -9.4813  -9.3867  -9.3489  -9.3428  -9.2979
    -9.2561  -9.2418  -9.1780  -9.1664  -9.1481  -9.1124  -9.0775  -9.0751
    -9.0450  -9.0226  -9.0212  -9.0055  -8.9317  -8.9258  -8.9151  -8.8822
    -8.8653  -8.8483  -7.6664  -7.6504  -7.0773  -7.0660  -7.0205  -7.0039
    -6.9828  -6.9672  -6.9581  -6.9414  -6.9384  -6.9185  -6.9013  -6.8976
    -6.8698  -6.8312  -5.6637  -5.4907  -5.3745  -5.3627  -5.2406  -5.2014
    -5.0770  -5.0389  -4.8734  -4.8607  -4.8272  -4.8079  -4.7917  -4.7596
    -4.7140  -4.6019  -3.7545  -3.7433  -3.2322  -3.2256  -2.7791  -2.7713
    -2.7548  -2.7505  -2.7337  -2.7305  -2.7214  -2.7196  -2.7143  -2.7028
    -2.6980  -2.6890  -0.8360  -0.8113  -0.7341  -0.6962  -0.6539  -0.6408
    -0.5503  -0.4899  -0.2760  -0.2453  -0.2034  -0.1379  -0.0116   0.0801
     0.1908   0.2378   0.3439   0.3674   0.3985   0.4190   0.4493   0.4721
     0.5321   0.5754   0.5960   0.6374   0.6816   0.7208   0.7570   0.7951
     0.8582   0.8812   0.9372   0.9618   0.9977   1.0010   1.0490   1.0642
     1.0669   1.0788   1.1152   1.1243   1.1338   1.1364   1.1928   1.2079
     1.2328   1.2543   1.2557   1.2912   1.2936   1.3276   1.3429   1.3559
     1.3587   1.3744   1.4165   1.4464   1.4490   1.4805   1.4998   1.5042
     1.5678   1.5850   1.6167   1.6308   1.6897   1.7269   1.7882   1.7976
     1.8148   1.8825   1.9399   2.0482

          k =-0.3828-0.1272 0.3762 (300132 PWs)   bands (ev):

   -17.8068 -17.7937 -17.5824 -17.5689 -17.5259 -17.5154 -17.4947 -17.4224
   -15.6895 -15.6765 -14.1707 -14.1701 -14.1637 -14.1606 -14.1519 -14.1512
   -14.1492 -14.1476 -14.1449 -14.1432 -14.1409 -14.1401 -14.1347 -14.1334
   -14.1297 -14.1290 -14.1276 -14.1264 -14.1260 -14.1239 -14.1221 -14.1195
   -14.1179 -14.1149 -14.1147 -14.1143 -14.1137 -14.1112 -14.1110 -14.1084
   -14.1084 -14.1076 -14.1052 -14.1037 -14.1034 -14.1018 -14.0994 -14.0988
   -14.0960 -14.0919 -10.5035 -10.4966 -10.4639 -10.4570 -10.4416 -10.3934
    -9.6568  -9.6450  -9.5036  -9.4601  -9.4409  -9.3894  -9.3422  -9.3142
    -9.2868  -9.2717  -9.1289  -9.1183  -9.0962  -9.0903  -9.0855  -9.0839
    -9.0479  -9.0412  -8.9975  -8.9951  -8.9568  -8.9455  -8.9077  -8.8854
    -8.8677  -8.8613  -7.6667  -7.6508  -7.0772  -7.0659  -7.0209  -7.0041
    -6.9813  -6.9658  -6.9570  -6.9397  -6.9347  -6.9185  -6.9045  -6.8981
    -6.8714  -6.8327  -5.5431  -5.3785  -5.3726  -5.3652  -5.3444  -5.1845
    -5.1255  -4.9770  -4.9489  -4.8740  -4.8517  -4.8211  -4.7982  -4.7848
    -4.7459  -4.6995  -3.7545  -3.7433  -3.2322  -3.2256  -2.7741  -2.7701
    -2.7579  -2.7440  -2.7422  -2.7339  -2.7297  -2.7225  -2.7127  -2.7019
    -2.6900  -2.6813  -0.6685  -0.6392  -0.6071  -0.5865  -0.4166  -0.3812
    -0.3555  -0.2865  -0.2587  -0.2554  -0.1537  -0.1498  -0.0228  -0.0146
     0.1888   0.2199   0.2766   0.2936   0.3099   0.3295   0.3742   0.3998
     0.4244   0.4560   0.5394   0.5420   0.6646   0.6683   0.7304   0.7498
     0.7957   0.8187   0.8742   0.8860   0.9201   0.9415   0.9462   0.9796
     1.0111   1.0301   1.0382   1.0699   1.0913   1.1143   1.1645   1.2130
     1.2595   1.2736   1.3025   1.3062   1.3324   1.3342   1.3607   1.3636
     1.4022   1.4087   1.4264   1.4343   1.4558   1.4679   1.5035   1.5091
     1.5339   1.5664   1.5967   1.5995   1.6633   1.6801   1.7234   1.7328
     1.7976   1.8071   1.8659   1.8857

          k =-0.3828 0.1272-0.3762 (300132 PWs)   bands (ev):

   -17.8068 -17.7937 -17.5824 -17.5689 -17.5259 -17.5154 -17.4947 -17.4224
   -15.6895 -15.6765 -14.1707 -14.1701 -14.1637 -14.1606 -14.1519 -14.1512
   -14.1492 -14.1476 -14.1449 -14.1432 -14.1409 -14.1402 -14.1347 -14.1334
   -14.1297 -14.1290 -14.1276 -14.1264 -14.1260 -14.1239 -14.1221 -14.1195
   -14.1179 -14.1149 -14.1147 -14.1143 -14.1137 -14.1112 -14.1110 -14.1084
   -14.1084 -14.1076 -14.1052 -14.1037 -14.1034 -14.1018 -14.0994 -14.0988
   -14.0960 -14.0919 -10.5038 -10.4966 -10.4641 -10.4570 -10.4413 -10.3930
    -9.6577  -9.6454  -9.5066  -9.4564  -9.4391  -9.3891  -9.3370  -9.3190
    -9.2860  -9.2758  -9.1253  -9.1209  -9.0953  -9.0942  -9.0838  -9.0829
    -9.0486  -9.0380  -9.0034  -8.9868  -8.9598  -8.9394  -8.9155  -8.9000
    -8.8607  -8.8537  -7.6667  -7.6508  -7.0773  -7.0660  -7.0208  -7.0041
    -6.9814  -6.9657  -6.9570  -6.9397  -6.9347  -6.9185  -6.9044  -6.8982
    -6.8714  -6.8327  -5.5417  -5.3817  -5.3706  -5.3640  -5.3449  -5.1858
    -5.1275  -4.9770  -4.9526  -4.8692  -4.8507  -4.8203  -4.7979  -4.7856
    -4.7463  -4.6988  -3.7545  -3.7433  -3.2322  -3.2256  -2.7746  -2.7695
    -2.7577  -2.7449  -2.7419  -2.7348  -2.7280  -2.7233  -2.7127  -2.7018
    -2.6898  -2.6812  -0.6952  -0.6555  -0.6082  -0.5790  -0.4089  -0.3758
    -0.3433  -0.2880  -0.2474  -0.2313  -0.1368  -0.1259  -0.0232  -0.0106
     0.1665   0.2162   0.2664   0.2813   0.2827   0.2966   0.3932   0.4010
     0.4325   0.4487   0.5521   0.5533   0.6522   0.6563   0.7377   0.7486
     0.7967   0.8143   0.8714   0.8792   0.8864   0.9054   0.9774   0.9882
     1.0010   1.0041   1.0504   1.0659   1.1495   1.1529   1.1841   1.2147
     1.2468   1.2754   1.2925   1.3061   1.3213   1.3442   1.3623   1.3633
     1.3950   1.4017   1.4275   1.4379   1.4663   1.4685   1.4981   1.5100
     1.5474   1.5555   1.5943   1.6189   1.6696   1.6707   1.7029   1.7088
     1.7697   1.7960   1.9000   1.9195

          k = 0.3828-0.1272-0.3762 (300132 PWs)   bands (ev):

   -17.8068 -17.7937 -17.5824 -17.5689 -17.5259 -17.5154 -17.4947 -17.4224
   -15.6895 -15.6765 -14.1707 -14.1701 -14.1637 -14.1606 -14.1519 -14.1512
   -14.1492 -14.1476 -14.1449 -14.1432 -14.1409 -14.1402 -14.1347 -14.1334
   -14.1297 -14.1290 -14.1276 -14.1264 -14.1260 -14.1239 -14.1221 -14.1195
   -14.1179 -14.1149 -14.1147 -14.1143 -14.1137 -14.1112 -14.1110 -14.1084
   -14.1084 -14.1076 -14.1052 -14.1037 -14.1034 -14.1018 -14.0994 -14.0988
   -14.0960 -14.0919 -10.5038 -10.4967 -10.4641 -10.4570 -10.4413 -10.3930
    -9.6574  -9.6455  -9.5071  -9.4560  -9.4413  -9.3853  -9.3359  -9.3221
    -9.2843  -9.2771  -9.1263  -9.1191  -9.0963  -9.0933  -9.0865  -9.0814
    -9.0436  -9.0414  -9.0109  -8.9793  -8.9583  -8.9407  -8.9185  -8.8978
    -8.8609  -8.8536  -7.6667  -7.6508  -7.0773  -7.0660  -7.0208  -7.0041
    -6.9814  -6.9657  -6.9572  -6.9399  -6.9347  -6.9182  -6.9045  -6.8981
    -6.8714  -6.8327  -5.5418  -5.3794  -5.3722  -5.3647  -5.3448  -5.1863
    -5.1282  -4.9747  -4.9522  -4.8698  -4.8513  -4.8209  -4.7981  -4.7854
    -4.7464  -4.6985  -3.7545  -3.7433  -3.2322  -3.2256  -2.7760  -2.7716
    -2.7557  -2.7431  -2.7409  -2.7348  -2.7281  -2.7240  -2.7128  -2.7018
    -2.6902  -2.6812  -0.6978  -0.6564  -0.6042  -0.5764  -0.4100  -0.3741
    -0.3417  -0.2837  -0.2461  -0.2415  -0.1433  -0.1297  -0.0287  -0.0075
     0.1770   0.2222   0.2625   0.2843   0.2937   0.2994   0.3851   0.3891
     0.4385   0.4463   0.5524   0.5531   0.6513   0.6554   0.7347   0.7524
     0.7880   0.8231   0.8719   0.8779   0.8865   0.9077   0.9821   0.9879
     1.0016   1.0023   1.0524   1.0571   1.1540   1.1563   1.1858   1.2159
     1.2400   1.2632   1.2965   1.3045   1.3352   1.3437   1.3530   1.3664
     1.3955   1.4020   1.4289   1.4308   1.4644   1.4684   1.4995   1.5109
     1.5491   1.5565   1.5941   1.6238   1.6596   1.6696   1.6990   1.7217
     1.7782   1.7863   1.8959   1.9240

          k =-0.3828-0.3816 0.1254 (300102 PWs)   bands (ev):

   -17.8068 -17.7937 -17.5824 -17.5689 -17.5259 -17.5154 -17.4947 -17.4224
   -15.6895 -15.6765 -14.1724 -14.1724 -14.1610 -14.1585 -14.1533 -14.1522
   -14.1487 -14.1482 -14.1428 -14.1420 -14.1402 -14.1391 -14.1361 -14.1340
   -14.1305 -14.1289 -14.1276 -14.1266 -14.1264 -14.1239 -14.1222 -14.1195
   -14.1179 -14.1149 -14.1147 -14.1143 -14.1137 -14.1112 -14.1110 -14.1084
   -14.1084 -14.1076 -14.1051 -14.1037 -14.1034 -14.1018 -14.0994 -14.0988
[...]
    -8.9963  -8.9907  -8.9563  -8.9368  -8.9217  -8.9127  -8.8978  -8.8858
    -8.8553  -8.8492  -7.6472  -7.6407  -7.0777  -7.0689  -6.9338  -6.9282
    -6.9213  -6.9169  -6.8870  -6.8546  -6.8515  -6.8482  -6.8274  -6.8236
    -6.7973  -6.7967  -5.4075  -5.3111  -5.2969  -5.2555  -5.2164  -5.2056
    -5.0689  -5.0606  -5.0347  -4.8963  -4.8351  -4.7994  -4.7912  -4.7695
    -4.7266  -4.6883  -3.7632  -3.7499  -3.2191  -3.2163  -2.7397  -2.7260
    -2.7127  -2.7097  -2.6973  -2.6877  -2.6733  -2.6668  -2.6427  -2.6381
    -2.6281  -2.6274  -0.4509  -0.4356  -0.3815  -0.3401  -0.2946  -0.2768
    -0.2216  -0.2059  -0.1752  -0.1370  -0.1212  -0.0927   0.0445   0.0491
     0.1588   0.2122   0.2359   0.2501   0.2666   0.2832   0.3453   0.3870
     0.4191   0.4266   0.4557   0.4655   0.6863   0.7309   0.7647   0.7760
     0.8079   0.8135   0.8401   0.8693   0.8952   0.9188   0.9385   0.9847
     0.9984   1.0202   1.0658   1.0712   1.1317   1.1549   1.1699   1.1913
     1.2100   1.2224   1.2882   1.3086   1.3306   1.3434   1.3740   1.3930
     1.4145   1.4170   1.4619   1.4689   1.4846   1.4919   1.5136   1.5515
     1.5572   1.5698   1.6304   1.6486   1.6953   1.7020   1.7296   1.7349
     1.7731   1.7884   1.8458   1.8666

          k = 0.3826-0.3827-0.3772 (300102 PWs)   bands (ev):

   -17.8087 -17.8078 -17.5222 -17.5080 -17.4798 -17.4678 -17.4185 -17.3766
   -15.6622 -15.6578 -14.1408 -14.1363 -14.1300 -14.1226 -14.1186 -14.1148
   -14.1103 -14.1089 -14.1059 -14.1022 -14.1007 -14.0968 -14.0966 -14.0955
   -14.0922 -14.0916 -14.0910 -14.0906 -14.0903 -14.0855 -14.0842 -14.0834
   -14.0789 -14.0775 -14.0773 -14.0762 -14.0733 -14.0722 -14.0691 -14.0672
   -14.0665 -14.0641 -14.0630 -14.0626 -14.0594 -14.0528 -14.0524 -14.0524
   -14.0486 -14.0383 -10.4743 -10.4543 -10.4430 -10.4315 -10.3823 -10.3544
    -9.6320  -9.6225  -9.4703  -9.4336  -9.3940  -9.3704  -9.3417  -9.3394
    -9.2814  -9.2755  -9.0914  -9.0820  -9.0553  -9.0481  -9.0220  -9.0156
    -8.9971  -8.9924  -8.9541  -8.9370  -8.9212  -8.9136  -8.8978  -8.8848
    -8.8567  -8.8486  -7.6472  -7.6407  -7.0777  -7.0689  -6.9337  -6.9281
    -6.9217  -6.9168  -6.8869  -6.8550  -6.8517  -6.8475  -6.8277  -6.8235
    -6.7973  -6.7967  -5.4071  -5.3117  -5.2973  -5.2566  -5.2138  -5.2059
    -5.0712  -5.0608  -5.0322  -4.8969  -4.8350  -4.7998  -4.7907  -4.7695
    -4.7266  -4.6884  -3.7632  -3.7499  -3.2191  -3.2163  -2.7402  -2.7270
    -2.7118  -2.7087  -2.6970  -2.6878  -2.6736  -2.6671  -2.6428  -2.6375
    -2.6288  -2.6271  -0.4466  -0.4287  -0.3874  -0.3412  -0.2975  -0.2763
    -0.2228  -0.2071  -0.1818  -0.1407  -0.1192  -0.0897   0.0441   0.0504
     0.1588   0.2189   0.2371   0.2553   0.2606   0.2877   0.3418   0.3866
     0.4184   0.4281   0.4545   0.4649   0.6841   0.7327   0.7640   0.7801
     0.8039   0.8165   0.8403   0.8672   0.8938   0.9157   0.9406   0.9873
     1.0018   1.0228   1.0600   1.0645   1.1338   1.1574   1.1745   1.1858
     1.2157   1.2168   1.2901   1.3013   1.3375   1.3440   1.3750   1.3942
     1.4118   1.4138   1.4625   1.4655   1.4863   1.4961   1.5142   1.5496
     1.5586   1.5689   1.6288   1.6516   1.6961   1.6995   1.7301   1.7328
     1.7787   1.7850   1.8475   1.8644

     highest occupied level (ev):     2.2246

!    total energy              =  -16545.22675672 Ry
     Harris-Foulkes estimate   =  -16545.22675672 Ry
     estimated scf accuracy    <          3.9E-09 Ry

     total all-electron energy =   -677464.493626 Ry

     The total energy is the sum of the following terms:

     one-electron contribution =    -843.19715979 Ry
     hartree contribution      =     612.47638331 Ry
     xc contribution           =    -765.76662376 Ry
     ewald contribution        =   -1177.94050743 Ry
     DFT-D3 Dispersion         =      -0.64519128 Ry
     one-center paw contrib.   =  -14370.15365778 Ry

     convergence has been achieved in  10 iterations

     Forces acting on atoms (cartesian axes, Ry/au):

     atom    1 type  1   force =    -0.00041994   -0.00074294    0.00168653
     atom    2 type  1   force =     0.00000416   -0.00163206    0.00154872
     atom    3 type  1   force =    -0.00169996   -0.00066048   -0.00055345
     atom    4 type  1   force =    -0.00088270   -0.00058498    0.00070150
     atom    5 type  1   force =    -0.00076802   -0.00026982    0.00108140
     atom    6 type  1   force =    -0.00165313   -0.00006489    0.00004040
     atom    7 type  1   force =    -0.00011284   -0.00113666    0.00059968
     atom    8 type  1   force =     0.00000924   -0.00135348    0.00113993
     atom    9 type  2   force =    -0.00108839    0.00044423    0.00020018
     atom   10 type  2   force =     0.00049643   -0.00056638    0.00008349
     atom   11 type  2   force =     0.00017189   -0.00026275   -0.00329201
     atom   12 type  2   force =     0.00139962    0.00073259    0.00056300
     atom   13 type  2   force =     0.00005220    0.00189151    0.00066497
     atom   14 type  2   force =    -0.00149179    0.00035690   -0.00107877
     atom   15 type  2   force =     0.00142885    0.00015913    0.00052959
     atom   16 type  2   force =     0.00132502   -0.00000115    0.00015804
     atom   17 type  2   force =    -0.00103419    0.00147298    0.00080316
     atom   18 type  2   force =    -0.00018041    0.00030202    0.00005409
     atom   19 type  2   force =     0.00035920   -0.00100390    0.00105350
     atom   20 type  2   force =    -0.00076853    0.00037910   -0.00168021
     atom   21 type  2   force =     0.00118652    0.00054311    0.00050772
     atom   22 type  2   force =     0.00071822   -0.00006723    0.00081618
     atom   23 type  2   force =    -0.00040425    0.00050890    0.00020663
     atom   24 type  2   force =     0.00053327   -0.00011117    0.00080098
     atom   25 type  2   force =     0.00087622   -0.00052218    0.00007309
     atom   26 type  2   force =    -0.00098123    0.00145571   -0.00188376
     atom   27 type  2   force =     0.00029583    0.00091131    0.00019511
     atom   28 type  2   force =     0.00012880   -0.00047967    0.00017396
     atom   29 type  2   force =    -0.00137255    0.00048903   -0.00073187
     atom   30 type  2   force =     0.00037989    0.00029668   -0.00010951
     atom   31 type  2   force =     0.00028511    0.00055916   -0.00042736
     atom   32 type  2   force =     0.00033150   -0.00022001   -0.00125299
     atom   33 type  3   force =    -0.00600027   -0.00091461    0.00024634
     atom   34 type  3   force =     0.00037164   -0.00174105    0.00070473
     atom   35 type  3   force =    -0.00009647   -0.00131777   -0.00037614
     atom   36 type  3   force =    -0.00184220    0.00070489    0.00110463
     atom   37 type  3   force =    -0.00038634    0.00204435    0.00069461
     atom   38 type  3   force =     0.00003674   -0.00250622    0.00221345
     atom   39 type  3   force =     0.00063982    0.00031243    0.00009270
     atom   40 type  3   force =    -0.00025040    0.00232403    0.00006590
     atom   41 type  4   force =     0.00002229    0.00732345   -0.00010351
     atom   42 type  4   force =     0.00833122    0.00046799    0.00004859
     atom   43 type  4   force =    -0.00094583   -0.00095567   -0.00052433
     atom   44 type  4   force =     0.00182827   -0.00047041    0.00103420
     atom   45 type  4   force =     0.00284564   -0.00125002   -0.00150637
     atom   46 type  4   force =     0.00103367   -0.00282389   -0.00098766
     atom   47 type  4   force =    -0.00118715    0.00235104   -0.00287012
     atom   48 type  4   force =    -0.00187423   -0.00317388    0.00058730
     atom   49 type  4   force =    -0.00250412   -0.00100757   -0.00033294
     atom   50 type  4   force =     0.00387851    0.00043900    0.00015966
     atom   51 type  5   force =     0.00013815    0.00426127   -0.00029942
     atom   52 type  5   force =    -0.00131246   -0.00494118    0.00012123
     atom   53 type  5   force =    -0.00113986   -0.00182737   -0.00004083
     atom   54 type  5   force =     0.00058467   -0.00438311   -0.00013441
     atom   55 type  5   force =    -0.00005997   -0.00148608    0.00004851
     atom   56 type  5   force =     0.00019979    0.00220874   -0.00107843
     atom   57 type  5   force =     0.00007017    0.00108554   -0.00144036
     atom   58 type  5   force =     0.00203945   -0.00039664    0.00281088
     atom   59 type  5   force =    -0.00076043    0.00086451    0.00105071
     atom   60 type  5   force =     0.00081405   -0.00184918   -0.00027152
     atom   61 type  5   force =    -0.00149832    0.00015443   -0.00153881
     atom   62 type  5   force =    -0.00161925    0.00158711    0.00042806
     atom   63 type  5   force =     0.00046651   -0.00126975   -0.00265064
     atom   64 type  5   force =     0.00162378    0.00094295    0.00135175
     atom   65 type  5   force =    -0.00063113    0.00000602    0.00251605
     atom   66 type  5   force =     0.00003847    0.00107162   -0.00031215
     atom   67 type  5   force =    -0.00152301   -0.00011722   -0.00285600
     atom   68 type  5   force =     0.00089886    0.00005862    0.00205727
     atom   69 type  5   force =     0.00060948   -0.00013181   -0.00036654
     atom   70 type  5   force =    -0.00127775    0.00318108   -0.00071594
     atom   71 type  5   force =    -0.00029347    0.00013989    0.00128481
     atom   72 type  5   force =    -0.00067406    0.00026800   -0.00141671
     atom   73 type  5   force =     0.00041998   -0.00153617   -0.00042468
     atom   74 type  5   force =    -0.00055084    0.00055777   -0.00031902
     atom   75 type  5   force =    -0.00063467    0.00031053    0.00180691
     atom   76 type  5   force =     0.00051195    0.00085433   -0.00080786
     atom   77 type  5   force =     0.00103691   -0.00029894   -0.00123955
     atom   78 type  5   force =     0.00070039   -0.00023012    0.00108442
     atom   79 type  5   force =    -0.00119488    0.00073673   -0.00051899
     atom   80 type  5   force =    -0.00071016    0.00123466    0.00344372
     atom   81 type  5   force =     0.00279191   -0.00008783   -0.00187671
     atom   82 type  5   force =     0.00242766    0.00057787   -0.00011532
     atom   83 type  5   force =     0.00034052   -0.00126765    0.00184391
     atom   84 type  5   force =    -0.00311239    0.00082051   -0.00066385
     atom   85 type  5   force =    -0.00065047   -0.00058959   -0.00283880
     atom   86 type  5   force =     0.00129963   -0.00008565   -0.00293708
     atom   87 type  5   force =    -0.00271568    0.00379809   -0.00106885
     atom   88 type  5   force =     0.00275925   -0.00156531    0.00345512
     atom   89 type  5   force =    -0.00061921    0.00123659   -0.00111678
     atom   90 type  5   force =     0.00208897   -0.00259710   -0.00043363
     atom   91 type  5   force =    -0.00142418    0.00138206    0.00128199
     atom   92 type  5   force =     0.00064732    0.00217875   -0.00015333
     atom   93 type  5   force =    -0.00080067   -0.00055101    0.00019468
     atom   94 type  5   force =    -0.00212690   -0.00057910   -0.00001704
     atom   95 type  5   force =     0.00114347   -0.00258905   -0.00000121
     atom   96 type  5   force =     0.00065364   -0.00176653   -0.00004861

     Total force =     0.026187     Total SCF correction =     0.000206


     Computing stress (Cartesian axis) and pressure

          total   stress  (Ry/bohr**3)                   (kbar)     P=    0.33
   0.00000142   0.00001030   0.00000043          0.21      1.52      0.06
   0.00001030   0.00000255  -0.00000165          1.52      0.38     -0.24
   0.00000043  -0.00000165   0.00000283          0.06     -0.24      0.42


     number of scf cycles    =  26
     number of bfgs steps    =  25

     enthalpy old            =  -16545.2261773806 Ry
     enthalpy new            =  -16545.2267567157 Ry

     CASE: enthalpy_new < enthalpy_old

     new trust radius        =       0.0848394397 bohr
     new conv_thr            =       0.0000000058 Ry

     new unit-cell volume =  13420.98783 a.u.^3 (  1988.78518 Ang^3 )
     density =      4.16796 g/cm^3

CELL_PARAMETERS (alat= 24.15259000)
   0.979449259   0.000000000   0.000000000
   0.000000000   0.979168702   0.000000000
   0.000000000   0.000000000   0.993239288

ATOMIC_POSITIONS (crystal)
Pb       0.007385922  -0.001794104   0.002475538
Pb       0.006717602  -0.001093364   0.498728617
Pb       0.002465656   0.497601142   0.001769111
Pb       0.002361282   0.497336822   0.504380251
Pb       0.502408025  -0.002969381   0.003596947
Pb       0.502349585  -0.002902536   0.500913276
Pb       0.506583600   0.498523761  -0.000039235
Pb       0.506946944   0.498259699   0.503549593
I        0.255417731   0.067604110   0.011129735
I       -0.040709692   0.244774794  -0.027317898
I       -0.034764827   0.021102360   0.254778911
I        0.252364429   0.067247707   0.494502283
I       -0.041504405   0.244069266   0.529407220
I        0.022930419  -0.029994766   0.753985635
I        0.252932713   0.462217063   0.025856300
I        0.068230546   0.745587271   0.002807833
I       -0.008545441   0.501226681   0.252883494
I        0.255105204   0.461377814   0.479579504
I        0.070433017   0.745612142   0.500544953
I        0.026199193   0.490511105   0.753579563
I        0.754610422  -0.039295455  -0.020627651
I        0.569944111   0.245718764   0.001157587
I        0.524634018  -0.008629613   0.252795117
I        0.752956458  -0.037310382   0.525279059
I        0.568513169   0.245668374   0.503001085
I        0.491505390   0.001557180   0.753741032
I        0.753050307   0.566296589  -0.005255344
I        0.458762618   0.745417934   0.030224869
I        0.522734735   0.470237824   0.253412678
I        0.754676552   0.567764573   0.511934100
I        0.459824197   0.744386545   0.473309493
I        0.465053803   0.521251690   0.753742398
C        0.250542527   0.288912636   0.252700774
C        0.283289736   0.281941337   0.751854192
C        0.261453871   0.786951463   0.254980105
C        0.294661098   0.786938028   0.751155319
C        0.794500896   0.286907611   0.251710907
C        0.761263581   0.286498761   0.754215966
C        0.783413858   0.781790373   0.252390082
C        0.750471443   0.788852230   0.752472619
N        0.153909048   0.247743611   0.252688295
N        0.341021750   0.236142614   0.252512931
N        0.198991133   0.197293512   0.755492089
N        0.233822150   0.670534484   0.254313314
N        0.215265226   0.697788063   0.752963211
N        0.715158616   0.198002906   0.253394189
N        0.734514325   0.169707731   0.754546809
N        0.700316710   0.696159704   0.254270832
N        0.653885440   0.747906468   0.752774684
N        0.841007091   0.735901777   0.752090618
H        0.256125270   0.375336087   0.253340386
H        0.137947332   0.167781603   0.252432902
H        0.090940969   0.299205248   0.253100165
H        0.345972869   0.155019950   0.252372374
H        0.410318571   0.279131944   0.252751423
H        0.202992119   0.147535077   0.689831972
H        0.123123374   0.229462202   0.758708964
H        0.207620637   0.149918107   0.822332347
H        0.271583789   0.329391097   0.680435314
H        0.361424213   0.242861385   0.749593980
H        0.276707906   0.331781411   0.822498114
H        0.259013852   0.632821060   0.185637294
H        0.152200496   0.657730026   0.261012693
H        0.267841935   0.630677590   0.317568988
H        0.223035768   0.823965614   0.186677267
H        0.348189135   0.794458156   0.248730068
H        0.233314083   0.821757130   0.329237973
H        0.167440118   0.699118543   0.685833493
H        0.165695811   0.703143308   0.818746065
H        0.253520545   0.624348320   0.755692528
H        0.342530565   0.779791301   0.679280776
H        0.345212213   0.780457431   0.821248777
H        0.250779569   0.862622959   0.751790211
H        0.667680454   0.198989475   0.186102340
H        0.665186657   0.203775756   0.318729701
H        0.753064581   0.124536748   0.256861166
H        0.842375315   0.279872591   0.179990229
H        0.845136572   0.280433825   0.321614953
H        0.750856953   0.362614675   0.252427112
H        0.760496402   0.131989476   0.686211608
H        0.652805666   0.156289337   0.759489985
H        0.767670826   0.130515262   0.818856023
H        0.722877465   0.323091089   0.685541753
H        0.848105347   0.294512623   0.749064805
H        0.732177971   0.321612369   0.827903884
H        0.706102085   0.646900508   0.188422198
H        0.623925824   0.726827216   0.255830407
H        0.708194824   0.648670452   0.321046801
H        0.771661382   0.830290509   0.181742207
H        0.862075417   0.743878571   0.250503679
H        0.775450044   0.830597020   0.323447336
H        0.756114553   0.875395728   0.752762869
H        0.637750264   0.667948891   0.752456481
H        0.590889142   0.799606830   0.753243277
H        0.845575667   0.654605778   0.752039103
H        0.910233576   0.778952863   0.752517025



     Writing output data file 0.25FA2_vcrelax6.save/
     NEW-OLD atomic charge density approx. for the potential
     extrapolated charge  407.10040, renormalised to  408.00000

     total cpu time spent up to now is   590858.8 secs

     Self-consistent Calculation

     iteration #  1     ecut=   120.00 Ry     beta= 0.70
     Davidson diagonalization with overlap
     ethr =  1.00E-06,  avg # of iterations =  5.0

     total cpu time spent up to now is   594154.9 secs

     total energy              =  -16545.22024587 Ry
     Harris-Foulkes estimate   =  -16546.58068368 Ry
     estimated scf accuracy    <       0.00859765 Ry

     iteration #  2     ecut=   120.00 Ry     beta= 0.70
     Davidson diagonalization with overlap
     ethr =  2.11E-06,  avg # of iterations =  3.4

     total cpu time spent up to now is   596506.0 secs

     total energy              =  -16545.22594047 Ry
     Harris-Foulkes estimate   =  -16545.23102582 Ry
     estimated scf accuracy    <       0.01150799 Ry

     iteration #  3     ecut=   120.00 Ry     beta= 0.70
     Davidson diagonalization with overlap
     ethr =  2.11E-06,  avg # of iterations =  2.0

     total cpu time spent up to now is   598157.1 secs

     total energy              =  -16545.22725502 Ry
     Harris-Foulkes estimate   =  -16545.22741405 Ry
     estimated scf accuracy    <       0.00094870 Ry

     iteration #  4     ecut=   120.00 Ry     beta= 0.70
     Davidson diagonalization with overlap
     ethr =  2.33E-07,  avg # of iterations =  3.0

     total cpu time spent up to now is   599820.0 secs

     total energy              =  -16545.22738705 Ry
     Harris-Foulkes estimate   =  -16545.22741172 Ry
     estimated scf accuracy    <       0.00024357 Ry

     iteration #  5     ecut=   120.00 Ry     beta= 0.70
     Davidson diagonalization with overlap
     ethr =  5.97E-08,  avg # of iterations =  2.6

     total cpu time spent up to now is   601452.3 secs

     total energy              =  -16545.22742831 Ry
     Harris-Foulkes estimate   =  -16545.22742803 Ry
     estimated scf accuracy    <       0.00006568 Ry

     iteration #  6     ecut=   120.00 Ry     beta= 0.70
     Davidson diagonalization with overlap
     ethr =  1.61E-08,  avg # of iterations =  3.0

     total cpu time spent up to now is   602993.2 secs

     total energy              =  -16545.22743187 Ry
     Harris-Foulkes estimate   =  -16545.22743761 Ry
     estimated scf accuracy    <       0.00001421 Ry

     iteration #  7     ecut=   120.00 Ry     beta= 0.70
     Davidson diagonalization with overlap
     ethr =  3.48E-09,  avg # of iterations =  3.0

     total cpu time spent up to now is   604610.7 secs

     total energy              =  -16545.22743416 Ry
     Harris-Foulkes estimate   =  -16545.22743570 Ry
     estimated scf accuracy    <       0.00000343 Ry

     iteration #  8     ecut=   120.00 Ry     beta= 0.70
     Davidson diagonalization with overlap
