
     Program PWSCF v.6.4 starts on 23Jul2020 at  3:25:30 

     This program is part of the open-source Quantum ESPRESSO suite
     for quantum simulation of materials; please cite
         "P. Giannozzi et al., J. Phys.:Condens. Matter 21 395502 (2009);
         "P. Giannozzi et al., J. Phys.:Condens. Matter 29 465901 (2017);
          URL http://www.quantum-espresso.org", 
     in publications or presentations arising from this work. More details at
     http://www.quantum-espresso.org/quote

     Parallel version (MPI), running on    32 processors

     MPI processes distributed on     1 nodes
     R & G space division:  proc/nbgrp/npool/nimage =      32
     Waiting for input...
     Reading input from standard input

     Current dimensions of program PWSCF are:
     Max number of different atomic species (ntypx) = 10
     Max number of k-points (npk) =  40000
     Max angular momentum in pseudopotentials (lmaxx) =  3
               file Pb.pbe-dn-kjpaw_psl.1.0.0.UPF: wavefunction(s)  6S 6P 5D renormalized
               file I.pbe-n-kjpaw_psl.1.0.0.UPF: wavefunction(s)  5S renormalized
               file C.pbe-n-kjpaw_psl.1.0.0.UPF: wavefunction(s)  2S 2P renormalized
               file N.pbe-n-kjpaw_psl.1.0.0.UPF: wavefunction(s)  2S renormalized
               file H.pbe-kjpaw_psl.1.0.0.UPF: wavefunction(s)  1S renormalized

     --------------------------------------------
     Parameters for DFT-D3 Dispersion Correction:
     --------------------------------------------
       Reference C6 values for interpolation: 

         atom   Coordination number   C6
         H          0.912             6.05
         H          0.000            15.18
         C          0.000            98.23
         C          0.987            86.49
         C          1.998            58.72
         C          2.999            51.56
         C          3.984            36.41
         N          0.000            50.54
         N          0.994            44.25
         N          2.014            39.35
         N          2.990            31.16
         I          0.000           703.93
         I          0.997           717.00
         Pb         0.000          1477.63
         Pb         0.938          1266.00
         Pb         1.936          1088.91
         Pb         2.908          1048.37
         Pb         3.910           910.57

       Values used:

         atom   Coordination number  R0_AB[au]  C6      C8
         Pb         4.797            4.041    910.57 144158.42
         Pb         4.798            4.041    910.57 144158.42
         Pb         4.767            4.041    910.57 144158.51
         Pb         4.777            4.041    910.57 144158.48
         Pb         4.778            4.041    910.57 144158.47
         Pb         4.766            4.041    910.57 144158.51
         Pb         4.798            4.041    910.57 144158.42
         Pb         4.795            4.041    910.57 144158.43
         I          1.923            3.532    717.00  65855.99
         I          1.954            3.532    717.00  65856.00
         I          1.873            3.532    717.00  65855.99
         I          1.914            3.532    717.00  65855.99
         I          1.959            3.532    717.00  65856.00
         I          2.001            3.532    717.00  65856.00
         I          2.052            3.532    717.00  65856.00
         I          1.983            3.532    717.00  65856.00
         I          1.876            3.532    717.00  65855.99
         I          2.056            3.532    717.00  65856.00
         I          1.977            3.532    717.00  65856.00
         I          1.992            3.532    717.00  65856.00
         I          2.053            3.532    717.00  65856.00
         I          1.977            3.532    717.00  65856.00
         I          1.992            3.532    717.00  65856.00
         I          2.053            3.532    717.00  65856.00
         I          1.981            3.532    717.00  65856.00
         I          1.875            3.532    717.00  65855.99
         I          1.914            3.532    717.00  65855.99
         I          1.959            3.532    717.00  65856.00
         I          2.000            3.532    717.00  65856.00
         I          1.920            3.532    717.00  65855.99
         I          1.953            3.532    717.00  65856.00
         I          1.872            3.532    717.00  65855.99
         C          3.112            2.750     50.81   1469.45
         C          4.044            2.750     36.58   1058.03
         C          4.045            2.750     36.58   1058.00
         C          4.043            2.750     36.58   1058.07
         C          4.042            2.750     36.58   1058.08
         C          4.044            2.750     36.58   1058.01
         C          4.044            2.750     36.58   1058.03
         C          3.112            2.750     50.81   1469.45
         N          3.101            2.478     31.23    689.05
         N          3.103            2.478     31.23    689.03
         N          4.056            2.478     31.16    687.49
         N          4.057            2.478     31.16    687.49
         N          4.062            2.478     31.16    687.49
         N          4.062            2.478     31.16    687.49
         N          4.056            2.478     31.16    687.49
         N          4.056            2.478     31.16    687.49
         N          3.100            2.478     31.23    689.06
         N          3.103            2.478     31.23    689.03
         H          1.029            2.062      6.16     74.43
         H          1.050            2.062      6.14     74.26
         H          1.042            2.062      6.15     74.32
         H          1.024            2.062      6.16     74.47
         H          1.037            2.062      6.15     74.36
         H          1.063            2.062      6.13     74.15
         H          1.016            2.062      6.17     74.55
         H          1.065            2.062      6.13     74.14
         H          1.023            2.062      6.16     74.48
         H          1.009            2.062      6.17     74.62
         H          1.025            2.062      6.16     74.47
         H          1.039            2.062      6.15     74.34
         H          1.060            2.062      6.14     74.18
         H          1.037            2.062      6.15     74.36
         H          1.015            2.062      6.17     74.57
         H          1.014            2.062      6.17     74.57
         H          1.014            2.062      6.17     74.57
         H          1.074            2.062      6.13     74.08
         H          1.072            2.062      6.13     74.10
         H          1.045            2.062      6.15     74.29
         H          1.016            2.062      6.17     74.55
         H          1.016            2.062      6.17     74.55
         H          1.010            2.062      6.17     74.61
         H          1.074            2.062      6.13     74.08
         H          1.071            2.062      6.13     74.10
         H          1.046            2.062      6.15     74.28
         H          1.016            2.062      6.17     74.55
         H          1.016            2.062      6.17     74.55
         H          1.010            2.062      6.17     74.61
         H          1.039            2.062      6.15     74.34
         H          1.060            2.062      6.14     74.17
         H          1.037            2.062      6.15     74.36
         H          1.014            2.062      6.17     74.57
         H          1.014            2.062      6.17     74.57
         H          1.015            2.062      6.17     74.57
         H          1.064            2.062      6.13     74.15
         H          1.016            2.062      6.17     74.55
         H          1.065            2.062      6.13     74.14
         H          1.023            2.062      6.16     74.48
         H          1.009            2.062      6.17     74.62
         H          1.024            2.062      6.16     74.47
         H          1.029            2.062      6.16     74.43
         H          1.049            2.062      6.14     74.26
         H          1.042            2.062      6.15     74.32
         H          1.024            2.062      6.16     74.47
         H          1.037            2.062      6.15     74.36

         Molecular C6 ( Ry / a.u.^6 ) =   1214662.13


     Subspace diagonalization in iterative solution of the eigenvalue problem:
     a serial algorithm will be used


     Parallelization info
     --------------------
     sticks:   dense  smooth     PW     G-vecs:    dense   smooth      PW
     Min         652     652    168                73842    73842    9674
     Max         653     653    169                73847    73847    9677
     Sum       20885   20885   5397              2363033  2363033  309631



     bravais-lattice index     =            0
     lattice parameter (alat)  =      23.3247  a.u.
     unit-cell volume          =   13306.3612 (a.u.)^3
     number of atoms/cell      =           96
     number of atomic types    =            5
     number of electrons       =       408.00
     number of Kohn-Sham states=          204
     kinetic-energy cutoff     =     120.0000  Ry
     charge density cutoff     =     480.0000  Ry
     convergence threshold     =      1.0E-07
     mixing beta               =       0.7000
     number of iterations used =            8  plain     mixing
     Exchange-correlation      = SLA PW PBX PBC ( 1  4  3  4 0 0)
     nstep                     =          150


     celldm(1)=  23.324746  celldm(2)=   0.000000  celldm(3)=   0.000000
     celldm(4)=   0.000000  celldm(5)=   0.000000  celldm(6)=   0.000000

     crystal axes: (cart. coord. in units of alat)
               a(1) = (   1.000000   0.000000   0.000000 )  
               a(2) = (   0.000000   1.004543   0.000000 )  
               a(3) = (   0.000000   0.000000   1.043855 )  

     reciprocal axes: (cart. coord. in units 2 pi/alat)
               b(1) = (  1.000000  0.000000  0.000000 )  
               b(2) = (  0.000000  0.995477  0.000000 )  
               b(3) = (  0.000000  0.000000  0.957988 )  


     PseudoPot. # 1 for Pb read from file:
     ../../../../Pseudopotential/Pb.pbe-dn-kjpaw_psl.1.0.0.UPF
     MD5 check sum: 684fc8fbce61a260853528575e4d9ab7
     Pseudo is Projector augmented-wave + core cor, Zval = 14.0
     Generated using "atomic" code by A. Dal Corso v.6.3
     Shape of augmentation charge: PSQ
     Using radial grid of 1281 points,  6 beta functions with: 
                l(1) =   0
                l(2) =   0
                l(3) =   1
                l(4) =   1
                l(5) =   2
                l(6) =   2
     Q(r) pseudized with 0 coefficients 


     PseudoPot. # 2 for I  read from file:
     ../../../../Pseudopotential/I.pbe-n-kjpaw_psl.1.0.0.UPF
     MD5 check sum: cd3d296c3308a581e1559a0c8a554cb5
     Pseudo is Projector augmented-wave + core cor, Zval =  7.0
     Generated using "atomic" code by A. Dal Corso v.6.3
     Shape of augmentation charge: PSQ
     Using radial grid of 1247 points,  6 beta functions with: 
                l(1) =   0
                l(2) =   0
                l(3) =   1
                l(4) =   1
                l(5) =   2
                l(6) =   2
     Q(r) pseudized with 0 coefficients 


     PseudoPot. # 3 for C  read from file:
     ../../../../Pseudopotential/C.pbe-n-kjpaw_psl.1.0.0.UPF
     MD5 check sum: 5f16ad9a65e90284d1d834d4ab3b0f7d
     Pseudo is Projector augmented-wave + core cor, Zval =  4.0
     Generated using "atomic" code by A. Dal Corso v.6.3
     Shape of augmentation charge: PSQ
     Using radial grid of 1073 points,  4 beta functions with: 
                l(1) =   0
                l(2) =   0
                l(3) =   1
                l(4) =   1
     Q(r) pseudized with 0 coefficients 


     PseudoPot. # 4 for N  read from file:
     ../../../../Pseudopotential/N.pbe-n-kjpaw_psl.1.0.0.UPF
     MD5 check sum: 14c48229446f9f2d411169a3abcbc3fa
     Pseudo is Projector augmented-wave + core cor, Zval =  5.0
     Generated using "atomic" code by A. Dal Corso v.6.3
     Shape of augmentation charge: PSQ
     Using radial grid of 1085 points,  4 beta functions with: 
                l(1) =   0
                l(2) =   0
                l(3) =   1
                l(4) =   1
     Q(r) pseudized with 0 coefficients 


     PseudoPot. # 5 for H  read from file:
     ../../../../Pseudopotential/H.pbe-kjpaw_psl.1.0.0.UPF
     MD5 check sum: d81a744832360e4a8af0b0b5b123bc2a
     Pseudo is Projector augmented-wave, Zval =  1.0
     Generated using "atomic" code by A. Dal Corso v.6.3MaX
     Shape of augmentation charge: PSQ
     Using radial grid of  929 points,  2 beta functions with: 
                l(1) =   0
                l(2) =   0
     Q(r) pseudized with 0 coefficients 


     atomic species   valence    mass     pseudopotential
        Pb            14.00   207.97600     Pb( 1.00)
        I              7.00   126.90400     I ( 1.00)
        C              4.00    12.00000     C ( 1.00)
        N              5.00    14.00300     N ( 1.00)
        H              1.00     1.00700     H ( 1.00)

     No symmetry found



   Cartesian axes

     site n.     atom                  positions (alat units)
         1           Pb  tau(   1) = (   0.0017158  -0.0086788   0.0033457  )
         2           Pb  tau(   2) = (   0.0023029  -0.0078905   0.5239193  )
         3           Pb  tau(   3) = (  -0.0017473   0.4967982   0.0005652  )
         4           Pb  tau(   4) = (  -0.0020081   0.4966739   0.5282346  )
         5           Pb  tau(   5) = (   0.4976820  -0.0057728   0.0063086  )
         6           Pb  tau(   6) = (   0.4982395  -0.0053349   0.5224050  )
         7           Pb  tau(   7) = (   0.5023459   0.4941014   0.0022928  )
         8           Pb  tau(   8) = (   0.5017733   0.4938470   0.5255752  )
         9           I   tau(   9) = (   0.2489860   0.0738339   0.0080540  )
        10           I   tau(  10) = (  -0.0605127   0.2401884  -0.0282644  )
        11           I   tau(  11) = (  -0.0248667   0.0158742   0.2652896  )
        12           I   tau(  12) = (   0.2484439   0.0752316   0.5230432  )
        13           I   tau(  13) = (  -0.0621275   0.2402227   0.5543228  )
        14           I   tau(  14) = (   0.0054762  -0.0210771   0.7870927  )
        15           I   tau(  15) = (   0.2493799   0.4427562   0.0200916  )
        16           I   tau(  16) = (   0.0761774   0.7431270  -0.0121839  )
        17           I   tau(  17) = (   0.0026009   0.5202897   0.2643431  )
        18           I   tau(  18) = (   0.2496172   0.4431847   0.5091208  )
        19           I   tau(  19) = (   0.0755875   0.7433860   0.5401618  )
        20           I   tau(  20) = (   0.0242351   0.4861572   0.7860906  )
        21           I   tau(  21) = (   0.7496111  -0.0590488  -0.0126774  )
        22           I   tau(  22) = (   0.5756765   0.2415041   0.0182823  )
        23           I   tau(  23) = (   0.5241874  -0.0161374   0.2644231  )
        24           I   tau(  24) = (   0.7492576  -0.0591280   0.5422264  )
        25           I   tau(  25) = (   0.5762650   0.2409837   0.5096518  )
        26           I   tau(  26) = (   0.5023083   0.0179525   0.7865003  )
        27           I   tau(  27) = (   0.7485807   0.5773078   0.0007599  )
        28           I   tau(  28) = (   0.4377316   0.7429641   0.0323332  )
        29           I   tau(  29) = (   0.5051743   0.4811214   0.2646871  )
        30           I   tau(  30) = (   0.7490640   0.5763221   0.5298935  )
        31           I   tau(  31) = (   0.4391525   0.7425806   0.4938728  )
        32           I   tau(  32) = (   0.4752322   0.5183565   0.7867069  )
        33           C   tau(  33) = (   0.2514009   0.2899599   0.2645993  )
        34           C   tau(  34) = (   0.2848166   0.2807839   0.7873262  )
        35           C   tau(  35) = (   0.2408829   0.7954293   0.2637336  )
        36           C   tau(  36) = (   0.2935402   0.8008023   0.7848169  )
        37           C   tau(  37) = (   0.7936593   0.2983682   0.2626028  )
        38           C   tau(  38) = (   0.7407921   0.2929229   0.7858331  )
        39           C   tau(  39) = (   0.7850670   0.7832407   0.2656232  )
        40           C   tau(  40) = (   0.7518866   0.7923694   0.7865546  )
        41           N   tau(  41) = (   0.1510699   0.2546664   0.2645666  )
        42           N   tau(  42) = (   0.3391444   0.2296524   0.2643105  )
        43           N   tau(  43) = (   0.1951750   0.1994430   0.7880661  )
        44           N   tau(  44) = (   0.2596497   0.6758495   0.2627576  )
        45           N   tau(  45) = (   0.2315601   0.6970562   0.7852321  )
        46           N   tau(  46) = (   0.7318484   0.1945061   0.2632352  )
        47           N   tau(  47) = (   0.7594597   0.1733025   0.7849884  )
        48           N   tau(  48) = (   0.6957151   0.7015026   0.2658653  )
        49           N   tau(  49) = (   0.6514038   0.7571716   0.7863697  )
        50           N   tau(  50) = (   0.8395764   0.7320587   0.7861762  )
        51           H   tau(  51) = (   0.2635529   0.3773790   0.2649616  )
        52           H   tau(  52) = (   0.1293626   0.1746364   0.2643097  )
        53           H   tau(  53) = (   0.0902511   0.3107604   0.2648722  )
        54           H   tau(  54) = (   0.3386035   0.1470942   0.2639001  )
        55           H   tau(  55) = (   0.4123753   0.2678749   0.2641816  )
        56           H   tau(  56) = (   0.1984128   0.1507807   0.7192215  )
        57           H   tau(  57) = (   0.1201526   0.2364908   0.7894489  )
        58           H   tau(  58) = (   0.2003170   0.1498878   0.8562157  )
        59           H   tau(  59) = (   0.2761721   0.3315796   0.7152272  )
        60           H   tau(  60) = (   0.3620208   0.2371984   0.7855140  )
        61           H   tau(  61) = (   0.2787619   0.3298875   0.8608112  )
        62           H   tau(  62) = (   0.3038777   0.6538515   0.1948057  )
        63           H   tau(  63) = (   0.1873687   0.6322964   0.2622892  )
        64           H   tau(  64) = (   0.3037364   0.6526219   0.3304317  )
        65           H   tau(  65) = (   0.1950515   0.8170078   0.1910424  )
        66           H   tau(  66) = (   0.3196566   0.8360766   0.2637294  )
        67           H   tau(  67) = (   0.1956208   0.8159474   0.3370355  )
        68           H   tau(  68) = (   0.1822166   0.6917162   0.7169571  )
        69           H   tau(  69) = (   0.1820838   0.6922235   0.8533616  )
        70           H   tau(  70) = (   0.2837197   0.6309581   0.7855794  )
        71           H   tau(  71) = (   0.3439053   0.8029879   0.7119898  )
        72           H   tau(  72) = (   0.3436715   0.8036744   0.8578194  )
        73           H   tau(  73) = (   0.2359133   0.8682292   0.7843978  )
        74           H   tau(  74) = (   0.6823781   0.1891224   0.1950164  )
        75           H   tau(  75) = (   0.6823891   0.1898009   0.3314801  )
        76           H   tau(  76) = (   0.7839679   0.1284993   0.2636480  )
        77           H   tau(  77) = (   0.8438413   0.3004746   0.1895970  )
        78           H   tau(  78) = (   0.8439499   0.3012803   0.3355167  )
        79           H   tau(  79) = (   0.7360115   0.3657151   0.2622240  )
        80           H   tau(  80) = (   0.8038673   0.1512503   0.7171332  )
        81           H   tau(  81) = (   0.6871789   0.1298066   0.7845074  )
        82           H   tau(  82) = (   0.8034619   0.1500766   0.8527589  )
        83           H   tau(  83) = (   0.6946346   0.3143979   0.7133012  )
        84           H   tau(  84) = (   0.8196037   0.3334991   0.7852677  )
        85           H   tau(  85) = (   0.6957958   0.3135508   0.8592776  )
        86           H   tau(  86) = (   0.6994238   0.6529102   0.1968992  )
        87           H   tau(  87) = (   0.6206226   0.7383098   0.2669888  )
        88           H   tau(  88) = (   0.7008438   0.6519132   0.3340245  )
        89           H   tau(  89) = (   0.7765871   0.8340382   0.1934882  )
        90           H   tau(  90) = (   0.8624270   0.7399372   0.2642661  )
        91           H   tau(  91) = (   0.7784591   0.8323924   0.3390907  )
        92           H   tau(  92) = (   0.7641670   0.8797192   0.7871476  )
        93           H   tau(  93) = (   0.6296344   0.6772000   0.7858881  )
        94           H   tau(  94) = (   0.5907631   0.8134619   0.7869447  )
        95           H   tau(  95) = (   0.8392559   0.6495322   0.7855677  )
        96           H   tau(  96) = (   0.9128410   0.7702649   0.7864414  )

     number of k points=    32
                       cart. coord. in units 2pi/alat
        k(    1) = (   0.1250000   0.1244347   0.1197485), wk =   0.0625000
        k(    2) = (   0.1250000   0.1244347   0.3592454), wk =   0.0625000
        k(    3) = (   0.1250000   0.3733041   0.1197485), wk =   0.0625000
        k(    4) = (   0.1250000   0.3733041   0.3592454), wk =   0.0625000
        k(    5) = (   0.3750000   0.1244347   0.1197485), wk =   0.0625000
        k(    6) = (   0.3750000   0.1244347   0.3592454), wk =   0.0625000
        k(    7) = (   0.3750000   0.3733041   0.1197485), wk =   0.0625000
        k(    8) = (   0.3750000   0.3733041   0.3592454), wk =   0.0625000
        k(    9) = (  -0.1250000  -0.1244347   0.1197485), wk =   0.0625000
        k(   10) = (  -0.1250000   0.1244347  -0.1197485), wk =   0.0625000
        k(   11) = (   0.1250000  -0.1244347  -0.1197485), wk =   0.0625000
        k(   12) = (  -0.1250000  -0.1244347   0.3592454), wk =   0.0625000
        k(   13) = (  -0.1250000   0.1244347  -0.3592454), wk =   0.0625000
        k(   14) = (   0.1250000  -0.1244347  -0.3592454), wk =   0.0625000
        k(   15) = (  -0.1250000  -0.3733041   0.1197485), wk =   0.0625000
        k(   16) = (  -0.1250000   0.3733041  -0.1197485), wk =   0.0625000
        k(   17) = (   0.1250000  -0.3733041  -0.1197485), wk =   0.0625000
        k(   18) = (  -0.1250000  -0.3733041   0.3592454), wk =   0.0625000
        k(   19) = (  -0.1250000   0.3733041  -0.3592454), wk =   0.0625000
        k(   20) = (   0.1250000  -0.3733041  -0.3592454), wk =   0.0625000
        k(   21) = (  -0.3750000  -0.1244347   0.1197485), wk =   0.0625000
        k(   22) = (  -0.3750000   0.1244347  -0.1197485), wk =   0.0625000
        k(   23) = (   0.3750000  -0.1244347  -0.1197485), wk =   0.0625000
        k(   24) = (  -0.3750000  -0.1244347   0.3592454), wk =   0.0625000
        k(   25) = (  -0.3750000   0.1244347  -0.3592454), wk =   0.0625000
        k(   26) = (   0.3750000  -0.1244347  -0.3592454), wk =   0.0625000
        k(   27) = (  -0.3750000  -0.3733041   0.1197485), wk =   0.0625000
        k(   28) = (  -0.3750000   0.3733041  -0.1197485), wk =   0.0625000
        k(   29) = (   0.3750000  -0.3733041  -0.1197485), wk =   0.0625000
        k(   30) = (  -0.3750000  -0.3733041   0.3592454), wk =   0.0625000
        k(   31) = (  -0.3750000   0.3733041  -0.3592454), wk =   0.0625000
        k(   32) = (   0.3750000  -0.3733041  -0.3592454), wk =   0.0625000

     Dense  grid:  2363033 G-vectors     FFT dimensions: ( 180, 180, 180)

     Estimated max dynamical RAM per process >       1.67 GB

     Estimated total dynamical RAM >      53.55 GB

     Initial potential from superposition of free atoms

     starting charge  407.97850, renormalised to  408.00000
     Starting wfcs are  286 randomized atomic wfcs
     Checking if some PAW data can be deallocated... 

     total cpu time spent up to now is     1198.1 secs

     Self-consistent Calculation

     iteration #  1     ecut=   120.00 Ry     beta= 0.70
     Davidson diagonalization with overlap
     ethr =  1.00E-02,  avg # of iterations =  2.0

     total cpu time spent up to now is     5000.1 secs

     total energy              =  -16543.26511788 Ry
     Harris-Foulkes estimate   =  -16546.93268928 Ry
     estimated scf accuracy    <       6.02733477 Ry

     iteration #  2     ecut=   120.00 Ry     beta= 0.70
     Davidson diagonalization with overlap
     ethr =  1.48E-03,  avg # of iterations =  3.0

     total cpu time spent up to now is     8431.2 secs

     total energy              =  -16544.57181334 Ry
     Harris-Foulkes estimate   =  -16546.07391726 Ry
     estimated scf accuracy    <       2.70418908 Ry

     iteration #  3     ecut=   120.00 Ry     beta= 0.70
     Davidson diagonalization with overlap
     ethr =  6.63E-04,  avg # of iterations =  4.0

     total cpu time spent up to now is    11158.8 secs

     total energy              =  -16545.20411373 Ry
     Harris-Foulkes estimate   =  -16545.25700920 Ry
     estimated scf accuracy    <       0.11998738 Ry

     iteration #  4     ecut=   120.00 Ry     beta= 0.70
     Davidson diagonalization with overlap
     ethr =  2.94E-05,  avg # of iterations =  4.0

     total cpu time spent up to now is    14467.1 secs

     total energy              =  -16545.23511838 Ry
     Harris-Foulkes estimate   =  -16545.25113987 Ry
     estimated scf accuracy    <       0.03043708 Ry

     iteration #  5     ecut=   120.00 Ry     beta= 0.70
     Davidson diagonalization with overlap
     ethr =  7.46E-06,  avg # of iterations =  4.0

     total cpu time spent up to now is    17199.9 secs

     total energy              =  -16545.24140954 Ry
     Harris-Foulkes estimate   =  -16545.24274807 Ry
     estimated scf accuracy    <       0.00257759 Ry

     iteration #  6     ecut=   120.00 Ry     beta= 0.70
     Davidson diagonalization with overlap
     ethr =  6.32E-07,  avg # of iterations =  4.0

     total cpu time spent up to now is    20176.0 secs

     total energy              =  -16545.24214124 Ry
     Harris-Foulkes estimate   =  -16545.24239296 Ry
     estimated scf accuracy    <       0.00056561 Ry

     iteration #  7     ecut=   120.00 Ry     beta= 0.70
     Davidson diagonalization with overlap
     ethr =  1.39E-07,  avg # of iterations =  3.0

     total cpu time spent up to now is    23238.8 secs

     total energy              =  -16545.24226362 Ry
     Harris-Foulkes estimate   =  -16545.24228119 Ry
     estimated scf accuracy    <       0.00004198 Ry

     iteration #  8     ecut=   120.00 Ry     beta= 0.70
     Davidson diagonalization with overlap
     ethr =  1.03E-08,  avg # of iterations =  4.0

     total cpu time spent up to now is    26673.3 secs

     total energy              =  -16545.24227603 Ry
     Harris-Foulkes estimate   =  -16545.24228349 Ry
     estimated scf accuracy    <       0.00001674 Ry

     iteration #  9     ecut=   120.00 Ry     beta= 0.70
     Davidson diagonalization with overlap
     ethr =  4.10E-09,  avg # of iterations =  3.0

     total cpu time spent up to now is    29619.0 secs

     total energy              =  -16545.24227953 Ry
     Harris-Foulkes estimate   =  -16545.24228001 Ry
     estimated scf accuracy    <       0.00000100 Ry

     iteration # 10     ecut=   120.00 Ry     beta= 0.70
     Davidson diagonalization with overlap
     ethr =  2.46E-10,  avg # of iterations =  3.0

     total cpu time spent up to now is    32860.5 secs

     total energy              =  -16545.24227981 Ry
     Harris-Foulkes estimate   =  -16545.24227992 Ry
     estimated scf accuracy    <       0.00000024 Ry

     iteration # 11     ecut=   120.00 Ry     beta= 0.70
     Davidson diagonalization with overlap
     ethr =  5.87E-11,  avg # of iterations =  3.0

     total cpu time spent up to now is    35897.2 secs

     End of self-consistent calculation

          k = 0.1250 0.1244 0.1197 (295390 PWs)   bands (ev):

   -17.6936 -17.6881 -17.3205 -17.3178 -17.3153 -17.3107 -17.2499 -17.2498
   -15.5511 -15.5502 -14.0732 -14.0720 -14.0642 -14.0637 -14.0596 -14.0577
   -14.0530 -14.0516 -14.0498 -14.0492 -14.0471 -14.0447 -14.0347 -14.0333
   -14.0323 -14.0320 -14.0315 -14.0309 -14.0308 -14.0293 -14.0284 -14.0261
   -14.0258 -14.0248 -14.0176 -14.0161 -14.0154 -14.0149 -14.0144 -14.0135
   -14.0129 -14.0125 -14.0124 -14.0104 -14.0103 -14.0092 -13.9966 -13.9949
   -13.9945 -13.9935 -10.2783 -10.2753 -10.2678 -10.2664 -10.2403 -10.2375
    -9.5544  -9.5486  -9.4519  -9.3381  -9.3040  -9.2648  -9.2163  -9.1619
    -9.1489  -9.1342  -9.0955  -9.0595  -9.0299  -8.9711  -8.9650  -8.9515
    -8.9489  -8.9296  -8.9269  -8.9138  -8.8803  -8.8322  -8.8022  -8.7702
    -8.7603  -8.7342  -7.5369  -7.5312  -6.9629  -6.9608  -6.7653  -6.7600
    -6.7580  -6.7530  -6.7510  -6.7459  -6.7310  -6.7274  -6.7267  -6.7210
    -6.6615  -6.6570  -5.6531  -5.2475  -5.2351  -5.2055  -5.2040  -5.1962
    -4.8399  -4.8195  -4.8016  -4.6265  -4.6122  -4.6057  -4.5994  -4.5923
    -4.5866  -4.3965  -3.6609  -3.6585  -3.1200  -3.1156  -2.6301  -2.6123
    -2.6071  -2.5980  -2.5774  -2.5735  -2.5659  -2.5621  -2.5292  -2.5255
    -2.5239  -2.5190  -0.6856  -0.6456  -0.5976  -0.5941  -0.5684  -0.5009
    -0.4859  -0.4312  -0.3947  -0.3476  -0.3286  -0.2584   0.0660   0.1773
     0.4160   0.4671   0.4940   0.5010   0.5579   0.5693   0.5815   0.6602
     0.7037   0.7136   0.7510   0.7786   0.8234   0.9146   0.9157   0.9335
     0.9663   1.0122   1.0474   1.0788   1.0936   1.1286   1.1402   1.1612
     1.1779   1.1949   1.2040   1.2294   1.2315   1.2526   1.2653   1.2882
     1.3224   1.3371   1.3451   1.4092   1.4106   1.4753   1.5012   1.5027
     1.5093   1.5183   1.5757   1.5905   1.5940   1.6126   1.6428   1.6632
     1.6922   1.7201   1.7536   1.8132   1.8298   1.8602   1.8804   1.9113
     1.9256   1.9904   2.0937   2.2550

          k = 0.1250 0.1244 0.3592 (295365 PWs)   bands (ev):

   -17.6936 -17.6881 -17.3205 -17.3177 -17.3153 -17.3107 -17.2499 -17.2498
   -15.5511 -15.5502 -14.0712 -14.0697 -14.0662 -14.0660 -14.0576 -14.0554
   -14.0543 -14.0518 -14.0515 -14.0498 -14.0471 -14.0453 -14.0347 -14.0334
   -14.0322 -14.0321 -14.0315 -14.0309 -14.0308 -14.0293 -14.0284 -14.0260
   -14.0259 -14.0248 -14.0176 -14.0161 -14.0154 -14.0149 -14.0144 -14.0135
   -14.0129 -14.0125 -14.0124 -14.0104 -14.0103 -14.0092 -13.9966 -13.9949
   -13.9945 -13.9935 -10.2776 -10.2758 -10.2677 -10.2663 -10.2403 -10.2376
    -9.5480  -9.5457  -9.4289  -9.3749  -9.3014  -9.2466  -9.2419  -9.2128
    -9.1755  -9.1637  -9.0230  -9.0116  -8.9944  -8.9836  -8.9640  -8.9530
    -8.9513  -8.9390  -8.9062  -8.9031  -8.8594  -8.8404  -8.8318  -8.8000
    -8.7526  -8.7421  -7.5368  -7.5319  -6.9630  -6.9609  -6.7628  -6.7607
    -6.7572  -6.7529  -6.7487  -6.7431  -6.7307  -6.7272  -6.7265  -6.7218
    -6.6646  -6.6606  -5.5403  -5.3684  -5.2058  -5.2032  -5.1360  -5.0966
    -4.9707  -4.9324  -4.7296  -4.6370  -4.6202  -4.6128  -4.5918  -4.5896
    -4.5829  -4.5100  -3.6614  -3.6589  -3.1198  -3.1159  -2.6196  -2.6136
    -2.6059  -2.5987  -2.5803  -2.5787  -2.5612  -2.5602  -2.5295  -2.5259
    -2.5234  -2.5202  -0.5731  -0.5486  -0.5423  -0.4944  -0.4078  -0.3635
    -0.3595  -0.3485  -0.2360  -0.2148  -0.1912  -0.0991   0.0757   0.1487
     0.3065   0.3418   0.4161   0.4472   0.4841   0.5153   0.5411   0.5823
     0.5895   0.6026   0.6310   0.6521   0.6846   0.7170   0.8363   0.8817
     0.8842   0.9297   0.9760   1.0093   1.0658   1.0730   1.1125   1.1183
     1.1529   1.1613   1.1801   1.1975   1.2790   1.2898   1.3210   1.3331
     1.3525   1.3700   1.3966   1.3975   1.4547   1.4691   1.4918   1.5129
     1.5452   1.5544   1.5635   1.5654   1.6060   1.6150   1.6460   1.6587
     1.6889   1.7262   1.7480   1.7692   1.7831   1.8349   1.8365   1.8459
     1.8869   1.8950   2.1029   2.1387

          k = 0.1250 0.3733 0.1197 (295408 PWs)   bands (ev):

   -17.6936 -17.6881 -17.3205 -17.3178 -17.3153 -17.3107 -17.2499 -17.2498
   -15.5511 -15.5502 -14.0730 -14.0719 -14.0640 -14.0635 -14.0590 -14.0580
   -14.0521 -14.0511 -14.0495 -14.0482 -14.0478 -14.0459 -14.0347 -14.0335
   -14.0323 -14.0321 -14.0316 -14.0312 -14.0307 -14.0299 -14.0285 -14.0262
   -14.0259 -14.0249 -14.0176 -14.0161 -14.0154 -14.0149 -14.0144 -14.0135
   -14.0129 -14.0125 -14.0124 -14.0104 -14.0103 -14.0092 -13.9966 -13.9949
   -13.9945 -13.9935 -10.2742 -10.2722 -10.2705 -10.2691 -10.2412 -10.2385
    -9.5554  -9.5517  -9.4087  -9.3480  -9.3129  -9.2489  -9.2423  -9.1840
    -9.1614  -9.1513  -9.0959  -9.0933  -9.0152  -8.9933  -8.9432  -8.9376
    -8.9318  -8.9208  -8.9123  -8.8944  -8.8504  -8.8279  -8.8259  -8.7845
    -8.7578  -8.7448  -7.5362  -7.5314  -6.9628  -6.9608  -6.7623  -6.7601
    -6.7570  -6.7537  -6.7525  -6.7462  -6.7310  -6.7286  -6.7266  -6.7221
    -6.6616  -6.6573  -5.5407  -5.3718  -5.2069  -5.2040  -5.1265  -5.1018
    -4.9650  -4.9434  -4.7197  -4.6400  -4.6161  -4.6078  -4.5987  -4.5937
    -4.5751  -4.4991  -3.6618  -3.6593  -3.1197  -3.1159  -2.6227  -2.6163
    -2.5991  -2.5926  -2.5763  -2.5745  -2.5681  -2.5661  -2.5309  -2.5267
    -2.5247  -2.5222  -0.6589  -0.6228  -0.5943  -0.5542  -0.5187  -0.4813
    -0.4554  -0.3798  -0.2534  -0.0841  -0.0484   0.0358   0.1508   0.1517
     0.1940   0.3862   0.4140   0.4800   0.5119   0.5279   0.5819   0.5870
     0.6174   0.6382   0.6740   0.7330   0.7687   0.8264   0.8594   0.9068
     0.9196   0.9519   1.0429   1.0442   1.0851   1.0867   1.1183   1.1212
     1.1545   1.1585   1.1958   1.2125   1.2309   1.2322   1.2645   1.2765
     1.3202   1.3236   1.3284   1.3612   1.4034   1.4076   1.4798   1.4942
     1.5044   1.5423   1.5569   1.5713   1.6025   1.6662   1.6746   1.6808
     1.6839   1.7224   1.7270   1.7845   1.8202   1.8683   1.8858   1.9082
     1.9478   1.9543   2.0289   2.1051

          k = 0.1250 0.3733 0.3592 (295367 PWs)   bands (ev):

   -17.6936 -17.6881 -17.3205 -17.3178 -17.3153 -17.3107 -17.2499 -17.2498
   -15.5511 -15.5502 -14.0710 -14.0695 -14.0660 -14.0658 -14.0569 -14.0557
   -14.0534 -14.0523 -14.0504 -14.0485 -14.0480 -14.0464 -14.0347 -14.0335
   -14.0322 -14.0322 -14.0316 -14.0312 -14.0307 -14.0299 -14.0285 -14.0261
   -14.0260 -14.0250 -14.0176 -14.0161 -14.0154 -14.0149 -14.0144 -14.0135
   -14.0129 -14.0125 -14.0124 -14.0104 -14.0103 -14.0092 -13.9966 -13.9949
   -13.9945 -13.9935 -10.2739 -10.2723 -10.2705 -10.2691 -10.2411 -10.2384
    -9.5506  -9.5485  -9.3892  -9.3545  -9.2905  -9.2751  -9.2543  -9.2323
    -9.2152  -9.1858  -9.0204  -9.0188  -8.9831  -8.9802  -8.9495  -8.9463
    -8.9360  -8.9307  -8.8992  -8.8970  -8.8663  -8.8519  -8.8089  -8.7848
    -8.7684  -8.7565  -7.5364  -7.5317  -6.9629  -6.9608  -6.7613  -6.7605
    -6.7566  -6.7534  -6.7488  -6.7431  -6.7309  -6.7284  -6.7265  -6.7229
    -6.6647  -6.6607  -5.4307  -5.2741  -5.2548  -5.2055  -5.1989  -5.0947
    -5.0001  -4.8558  -4.8322  -4.7079  -4.6125  -4.6074  -4.5966  -4.5937
    -4.5846  -4.5656  -3.6621  -3.6596  -3.1197  -3.1160  -2.6159  -2.6138
    -2.5995  -2.5940  -2.5802  -2.5787  -2.5646  -2.5640  -2.5304  -2.5266
    -2.5238  -2.5212  -0.5305  -0.4976  -0.4558  -0.4192  -0.3335  -0.2759
    -0.2534  -0.1701  -0.1494  -0.0901  -0.0369   0.0130   0.1336   0.1344
     0.2299   0.2453   0.3475   0.3582   0.4278   0.4638   0.4792   0.5247
     0.5656   0.5778   0.6091   0.6212   0.7418   0.7546   0.7897   0.8217
     0.8637   0.8962   0.9246   0.9459   0.9756   0.9801   1.0317   1.0564
     1.1015   1.1033   1.1638   1.1767   1.1987   1.2031   1.2750   1.2819
     1.3481   1.3559   1.3867   1.3942   1.4427   1.4527   1.4926   1.4935
     1.5440   1.5634   1.5795   1.5847   1.5947   1.6367   1.6745   1.6819
     1.6983   1.7236   1.7554   1.7641   1.7818   1.8105   1.8565   1.8763
     1.9047   1.9186   1.9670   1.9870

          k = 0.3750 0.1244 0.1197 (295357 PWs)   bands (ev):

   -17.6936 -17.6881 -17.3205 -17.3177 -17.3153 -17.3107 -17.2499 -17.2498
   -15.5511 -15.5502 -14.0731 -14.0719 -14.0641 -14.0635 -14.0590 -14.0579
   -14.0519 -14.0506 -14.0496 -14.0482 -14.0475 -14.0458 -14.0348 -14.0334
   -14.0326 -14.0323 -14.0315 -14.0311 -14.0310 -14.0299 -14.0287 -14.0263
   -14.0259 -14.0250 -14.0176 -14.0161 -14.0154 -14.0149 -14.0144 -14.0135
   -14.0129 -14.0125 -14.0124 -14.0104 -14.0103 -14.0092 -13.9966 -13.9949
   -13.9945 -13.9935 -10.2742 -10.2719 -10.2717 -10.2699 -10.2405 -10.2378
    -9.5461  -9.5431  -9.4311  -9.3916  -9.2804  -9.2390  -9.2373  -9.1872
    -9.1427  -9.1399  -9.0966  -9.0929  -9.0325  -9.0023  -8.9594  -8.9453
    -8.9214  -8.9189  -8.9103  -8.9017  -8.8318  -8.8175  -8.8059  -8.7860
    -8.7742  -8.7586  -7.5366  -7.5319  -6.9631  -6.9611  -6.7661  -6.7630
    -6.7543  -6.7527  -6.7503  -6.7459  -6.7313  -6.7271  -6.7262  -6.7200
    -6.6616  -6.6574  -5.5329  -5.3515  -5.2067  -5.2041  -5.1283  -5.1159
    -4.9566  -4.9399  -4.7435  -4.6455  -4.6167  -4.6103  -4.5921  -4.5896
    -4.5830  -4.5097  -3.6617  -3.6592  -3.1198  -3.1159  -2.6246  -2.6179
    -2.6004  -2.5942  -2.5803  -2.5780  -2.5718  -2.5697  -2.5243  -2.5225
    -2.5208  -2.5188  -0.6696  -0.6533  -0.5656  -0.5399  -0.5182  -0.4649
    -0.3590  -0.3097  -0.2298  -0.1845  -0.0837  -0.0140   0.1059   0.1944
     0.2498   0.3984   0.4462   0.4627   0.4811   0.5473   0.5503   0.5987
     0.6295   0.6632   0.7002   0.7529   0.7845   0.8093   0.8598   0.8840
     0.9130   0.9939   1.0159   1.0310   1.0768   1.1090   1.1353   1.1384
     1.1772   1.1867   1.2128   1.2196   1.2309   1.2510   1.2542   1.2862
     1.3159   1.3344   1.3487   1.3637   1.3796   1.3837   1.4168   1.4275
     1.4774   1.4790   1.5480   1.5661   1.5994   1.6034   1.6677   1.6896
     1.7222   1.7242   1.7463   1.7988   1.8293   1.8612   1.8625   1.8903
     1.9243   1.9399   1.9970   2.0730

          k = 0.3750 0.1244 0.3592 (295363 PWs)   bands (ev):

   -17.6936 -17.6881 -17.3205 -17.3177 -17.3153 -17.3107 -17.2499 -17.2498
   -15.5511 -15.5502 -14.0711 -14.0696 -14.0661 -14.0659 -14.0569 -14.0555
   -14.0533 -14.0520 -14.0505 -14.0484 -14.0477 -14.0462 -14.0348 -14.0334
   -14.0325 -14.0323 -14.0315 -14.0311 -14.0310 -14.0299 -14.0286 -14.0262
   -14.0260 -14.0250 -14.0176 -14.0161 -14.0154 -14.0149 -14.0144 -14.0135
   -14.0129 -14.0125 -14.0124 -14.0104 -14.0103 -14.0092 -13.9966 -13.9949
   -13.9945 -13.9935 -10.2738 -10.2721 -10.2715 -10.2700 -10.2405 -10.2379
    -9.5435  -9.5415  -9.4014  -9.3638  -9.3304  -9.2871  -9.2421  -9.2209
    -9.1771  -9.1645  -9.0229  -9.0173  -8.9970  -8.9795  -8.9687  -8.9562
    -8.9436  -8.9345  -8.8865  -8.8838  -8.8503  -8.8352  -8.8112  -8.7931
    -8.7756  -8.7662  -7.5369  -7.5323  -6.9632  -6.9611  -6.7645  -6.7629
    -6.7544  -6.7514  -6.7483  -6.7427  -6.7321  -6.7276  -6.7250  -6.7200
    -6.6647  -6.6607  -5.4232  -5.2687  -5.2278  -5.2057  -5.2022  -5.0726
    -5.0247  -4.8688  -4.8561  -4.7180  -4.6123  -4.6062  -4.5963  -4.5913
    -4.5867  -4.5706  -3.6620  -3.6595  -3.1197  -3.1160  -2.6183  -2.6162
    -2.6006  -2.5953  -2.5823  -2.5809  -2.5687  -2.5669  -2.5252  -2.5231
    -2.5208  -2.5184  -0.5140  -0.4825  -0.4084  -0.3989  -0.2908  -0.2683
    -0.2353  -0.2044  -0.1556  -0.1269  -0.0381  -0.0060   0.0918   0.1137
     0.2771   0.2883   0.3564   0.3661   0.4158   0.4387   0.4941   0.5131
     0.5264   0.5689   0.6221   0.6464   0.7582   0.7652   0.8225   0.8464
     0.8856   0.8907   0.9670   0.9693   1.0078   1.0139   1.0306   1.0467
     1.1043   1.1174   1.1457   1.1474   1.1944   1.2133   1.2501   1.2697
     1.3434   1.3492   1.3731   1.3787   1.4022   1.4122   1.4492   1.4590
     1.5344   1.5562   1.5589   1.5860   1.6135   1.6241   1.6494   1.6695
     1.7054   1.7210   1.7280   1.7613   1.8153   1.8281   1.8492   1.8664
     1.8797   1.8928   1.9523   1.9762

          k = 0.3750 0.3733 0.1197 (295442 PWs)   bands (ev):

   -17.6936 -17.6881 -17.3205 -17.3177 -17.3153 -17.3107 -17.2499 -17.2498
   -15.5511 -15.5502 -14.0729 -14.0717 -14.0638 -14.0633 -14.0587 -14.0578
   -14.0510 -14.0500 -14.0494 -14.0480 -14.0478 -14.0465 -14.0348 -14.0339
   -14.0328 -14.0324 -14.0318 -14.0314 -14.0312 -14.0303 -14.0287 -14.0263
   -14.0260 -14.0251 -14.0176 -14.0162 -14.0154 -14.0149 -14.0144 -14.0135
   -14.0129 -14.0125 -14.0123 -14.0104 -14.0103 -14.0092 -13.9966 -13.9950
   -13.9945 -13.9935 -10.2746 -10.2729 -10.2697 -10.2684 -10.2421 -10.2384
    -9.5497  -9.5449  -9.3878  -9.3675  -9.3312  -9.2693  -9.2126  -9.1791
    -9.1703  -9.1440  -9.0946  -9.0929  -9.0712  -9.0470  -8.9196  -8.9132
    -8.9126  -8.9073  -8.8918  -8.8752  -8.8367  -8.8273  -8.8109  -8.8024
    -8.7675  -8.7665  -7.5363  -7.5316  -6.9631  -6.9610  -6.7649  -6.7627
    -6.7539  -6.7529  -6.7511  -6.7458  -6.7316  -6.7277  -6.7267  -6.7203
    -6.6620  -6.6575  -5.4244  -5.2766  -5.2253  -5.2068  -5.2042  -5.0810
    -5.0182  -4.8681  -4.8377  -4.7188  -4.6136  -4.6107  -4.5942  -4.5901
    -4.5841  -4.5605  -3.6624  -3.6596  -3.1198  -3.1160  -2.6204  -2.6193
    -2.5974  -2.5915  -2.5795  -2.5777  -2.5707  -2.5682  -2.5269  -2.5248
    -2.5218  -2.5201  -0.6375  -0.6222  -0.5968  -0.5508  -0.3025  -0.2111
    -0.1843  -0.1593  -0.1157  -0.0856  -0.0044   0.0233   0.1694   0.1869
     0.2440   0.2551   0.4105   0.4321   0.4822   0.4837   0.5242   0.5465
     0.5579   0.5897   0.6385   0.6648   0.6817   0.7214   0.7584   0.8070
     0.8987   0.9924   1.0223   1.0554   1.0609   1.0853   1.1160   1.1330
     1.1611   1.1703   1.1938   1.2054   1.2132   1.2237   1.2327   1.2737
     1.2809   1.2991   1.3447   1.3503   1.3670   1.3886   1.4028   1.4337
     1.4473   1.4584   1.5182   1.5200   1.5384   1.5716   1.6364   1.6455
     1.6842   1.6897   1.7475   1.7692   1.8113   1.8388   1.8781   1.9091
     1.9300   1.9349   2.0199   2.0259

          k = 0.3750 0.3733 0.3592 (295347 PWs)   bands (ev):

   -17.6936 -17.6881 -17.3205 -17.3177 -17.3153 -17.3107 -17.2499 -17.2498
   -15.5511 -15.5502 -14.0709 -14.0694 -14.0659 -14.0657 -14.0565 -14.0554
   -14.0526 -14.0518 -14.0503 -14.0480 -14.0479 -14.0467 -14.0348 -14.0339
   -14.0328 -14.0324 -14.0318 -14.0314 -14.0312 -14.0303 -14.0287 -14.0262
   -14.0261 -14.0251 -14.0176 -14.0161 -14.0155 -14.0149 -14.0144 -14.0135
   -14.0129 -14.0125 -14.0124 -14.0104 -14.0103 -14.0092 -13.9966 -13.9950
   -13.9945 -13.9935 -10.2743 -10.2728 -10.2699 -10.2685 -10.2416 -10.2387
    -9.5464  -9.5438  -9.3614  -9.3361  -9.3218  -9.2749  -9.2736  -9.2528
    -9.2220  -9.1928  -9.0204  -9.0182  -9.0016  -8.9972  -8.9404  -8.9349
    -8.9325  -8.9298  -8.8771  -8.8674  -8.8493  -8.8461  -8.8014  -8.7954
    -8.7795  -8.7765  -7.5366  -7.5319  -6.9631  -6.9611  -6.7637  -6.7626
    -6.7534  -6.7510  -6.7490  -6.7427  -6.7325  -6.7279  -6.7259  -6.7206
    -6.6649  -6.6609  -5.3179  -5.2099  -5.2050  -5.1748  -5.1460  -5.1161
    -5.0069  -4.9780  -4.9585  -4.8280  -4.6103  -4.6077  -4.5963  -4.5938
    -4.5874  -4.5816  -3.6625  -3.6600  -3.1198  -3.1160  -2.6168  -2.6154
    -2.5983  -2.5933  -2.5815  -2.5797  -2.5686  -2.5670  -2.5263  -2.5235
    -2.5217  -2.5193  -0.3235  -0.3059  -0.2898  -0.2629  -0.2106  -0.2020
    -0.1453  -0.1139  -0.1002  -0.0547  -0.0234  -0.0166   0.1264   0.1416
     0.2493   0.2705   0.3195   0.3664   0.3727   0.3814   0.4041   0.4328
     0.4804   0.5079   0.5481   0.5682   0.7657   0.7830   0.8087   0.8478
     0.8754   0.8792   0.9305   0.9312   0.9663   0.9694   1.0008   1.0094
     1.0561   1.0795   1.1024   1.1310   1.1871   1.1985   1.2231   1.2262
     1.2585   1.2846   1.3222   1.3417   1.4108   1.4130   1.4406   1.4584
     1.4684   1.4716   1.5353   1.5561   1.5720   1.5797   1.6213   1.6258
     1.6910   1.6951   1.7333   1.7381   1.8032   1.8090   1.8723   1.8806
     1.9220   1.9315   1.9550   1.9575

          k =-0.1250-0.1244 0.1197 (295390 PWs)   bands (ev):

   -17.6936 -17.6881 -17.3205 -17.3178 -17.3153 -17.3107 -17.2499 -17.2498
   -15.5511 -15.5502 -14.0732 -14.0720 -14.0642 -14.0637 -14.0596 -14.0577
   -14.0530 -14.0516 -14.0498 -14.0492 -14.0471 -14.0447 -14.0347 -14.0333
   -14.0323 -14.0320 -14.0315 -14.0309 -14.0308 -14.0293 -14.0284 -14.0261
   -14.0258 -14.0248 -14.0176 -14.0161 -14.0154 -14.0149 -14.0144 -14.0135
   -14.0129 -14.0125 -14.0124 -14.0104 -14.0103 -14.0092 -13.9966 -13.9949
   -13.9945 -13.9935 -10.2783 -10.2753 -10.2678 -10.2664 -10.2403 -10.2375
    -9.5543  -9.5487  -9.4519  -9.3380  -9.3050  -9.2635  -9.2163  -9.1621
    -9.1499  -9.1337  -9.0952  -9.0597  -9.0297  -8.9708  -8.9645  -8.9521
    -8.9498  -8.9290  -8.9268  -8.9139  -8.8800  -8.8325  -8.8021  -8.7703
    -8.7602  -8.7341  -7.5370  -7.5312  -6.9629  -6.9608  -6.7653  -6.7599
    -6.7577  -6.7531  -6.7517  -6.7453  -6.7311  -6.7276  -6.7267  -6.7208
    -6.6615  -6.6570  -5.6531  -5.2477  -5.2348  -5.2054  -5.2040  -5.1964
    -4.8399  -4.8189  -4.8020  -4.6266  -4.6123  -4.6056  -4.5995  -4.5923
    -4.5866  -4.3965  -3.6609  -3.6585  -3.1200  -3.1156  -2.6302  -2.6122
    -2.6070  -2.5979  -2.5772  -2.5739  -2.5663  -2.5616  -2.5293  -2.5252
    -2.5241  -2.5189  -0.6858  -0.6455  -0.5981  -0.5940  -0.5667  -0.5011
    -0.4872  -0.4305  -0.3950  -0.3477  -0.3287  -0.2586   0.0664   0.1769
     0.4164   0.4674   0.4932   0.5009   0.5582   0.5692   0.5818   0.6601
     0.7040   0.7104   0.7552   0.7768   0.8260   0.9138   0.9160   0.9323
     0.9694   1.0107   1.0482   1.0791   1.0938   1.1258   1.1380   1.1601
     1.1776   1.1923   1.2058   1.2259   1.2317   1.2570   1.2638   1.2869
     1.3251   1.3371   1.3483   1.4089   1.4134   1.4760   1.5009   1.5013
     1.5081   1.5187   1.5769   1.5918   1.5970   1.6112   1.6377   1.6627
     1.6918   1.7229   1.7535   1.8120   1.8307   1.8604   1.8818   1.9110
     1.9236   1.9904   2.0932   2.2549

          k =-0.1250 0.1244-0.1197 (295390 PWs)   bands (ev):

   -17.6936 -17.6881 -17.3205 -17.3178 -17.3153 -17.3107 -17.2499 -17.2498
   -15.5511 -15.5502 -14.0732 -14.0720 -14.0642 -14.0637 -14.0596 -14.0577
   -14.0530 -14.0516 -14.0498 -14.0492 -14.0471 -14.0447 -14.0347 -14.0333
   -14.0323 -14.0320 -14.0315 -14.0309 -14.0308 -14.0293 -14.0284 -14.0261
   -14.0258 -14.0248 -14.0176 -14.0161 -14.0154 -14.0149 -14.0144 -14.0135
   -14.0129 -14.0125 -14.0124 -14.0104 -14.0103 -14.0092 -13.9966 -13.9949
   -13.9945 -13.9935 -10.2794 -10.2761 -10.2668 -10.2654 -10.2406 -10.2372
    -9.5539  -9.5490  -9.4541  -9.3357  -9.3023  -9.2601  -9.2242  -9.1616
    -9.1523  -9.1280  -9.0974  -9.0572  -9.0363  -8.9716  -8.9613  -8.9530
    -8.9396  -8.9289  -8.9245  -8.9190  -8.8860  -8.8338  -8.8019  -8.7707
    -8.7589  -8.7329  -7.5371  -7.5309  -6.9630  -6.9608  -6.7650  -6.7602
    -6.7578  -6.7531  -6.7510  -6.7456  -6.7310  -6.7276  -6.7267  -6.7213
    -6.6614  -6.6571  -5.6532  -5.2463  -5.2354  -5.2063  -5.2046  -5.1954
    -4.8403  -4.8191  -4.8035  -4.6277  -4.6104  -4.6074  -4.5972  -4.5925
    -4.5845  -4.3977  -3.6609  -3.6583  -3.1200  -3.1155  -2.6305  -2.6118
    -2.6061  -2.5976  -2.5776  -2.5740  -2.5667  -2.5626  -2.5287  -2.5254
    -2.5244  -2.5181  -0.6866  -0.6490  -0.6166  -0.5928  -0.5522  -0.4923
    -0.4886  -0.4267  -0.3945  -0.3506  -0.3241  -0.2653   0.0704   0.1757
     0.4256   0.4619   0.5001   0.5167   0.5412   0.5688   0.5742   0.6638
     0.6943   0.7039   0.7576   0.7732   0.8205   0.8998   0.9080   0.9611
     0.9688   1.0045   1.0473   1.0828   1.0865   1.1230   1.1313   1.1533
     1.1702   1.1921   1.2031   1.2321   1.2338   1.2639   1.2958   1.2981
     1.3168   1.3388   1.3577   1.4079   1.4121   1.4685   1.4970   1.4990
     1.5097   1.5282   1.5800   1.5803   1.5980   1.6279   1.6326   1.6563
     1.6928   1.7307   1.7334   1.8072   1.8444   1.8635   1.8809   1.9093
     1.9230   1.9871   2.0956   2.2527

          k = 0.1250-0.1244-0.1197 (295390 PWs)   bands (ev):

   -17.6936 -17.6881 -17.3205 -17.3178 -17.3153 -17.3107 -17.2499 -17.2498
   -15.5511 -15.5502 -14.0732 -14.0720 -14.0642 -14.0637 -14.0596 -14.0577
   -14.0530 -14.0516 -14.0498 -14.0492 -14.0471 -14.0447 -14.0347 -14.0333
   -14.0323 -14.0320 -14.0315 -14.0309 -14.0308 -14.0293 -14.0284 -14.0261
   -14.0258 -14.0248 -14.0176 -14.0161 -14.0154 -14.0149 -14.0144 -14.0135
   -14.0129 -14.0125 -14.0124 -14.0104 -14.0103 -14.0092 -13.9966 -13.9949
   -13.9945 -13.9935 -10.2794 -10.2761 -10.2668 -10.2654 -10.2406 -10.2372
    -9.5539  -9.5490  -9.4542  -9.3357  -9.3015  -9.2609  -9.2241  -9.1613
    -9.1527  -9.1282  -9.0974  -9.0571  -9.0361  -8.9712  -8.9614  -8.9523
    -8.9420  -8.9276  -8.9241  -8.9196  -8.8858  -8.8336  -8.8020  -8.7703
    -8.7592  -8.7329  -7.5371  -7.5310  -6.9630  -6.9608  -6.7650  -6.7602
    -6.7577  -6.7531  -6.7512  -6.7454  -6.7310  -6.7275  -6.7268  -6.7213
    -6.6613  -6.6571  -5.6532  -5.2476  -5.2339  -5.2064  -5.2046  -5.1957
    -4.8406  -4.8190  -4.8032  -4.6277  -4.6104  -4.6075  -4.5972  -4.5925
    -4.5845  -4.3978  -3.6609  -3.6583  -3.1200  -3.1156  -2.6305  -2.6118
    -2.6062  -2.5976  -2.5772  -2.5742  -2.5674  -2.5623  -2.5287  -2.5250
    -2.5244  -2.5184  -0.6866  -0.6488  -0.6170  -0.5927  -0.5510  -0.4916
    -0.4890  -0.4283  -0.3944  -0.3509  -0.3239  -0.2652   0.0700   0.1759
     0.4254   0.4622   0.5002   0.5166   0.5409   0.5690   0.5742   0.6635
     0.6954   0.7041   0.7583   0.7739   0.8183   0.8981   0.9087   0.9616
     0.9683   1.0045   1.0467   1.0833   1.0891   1.1212   1.1344   1.1523
     1.1730   1.1946   1.2031   1.2297   1.2356   1.2613   1.2964   1.2991
     1.3131   1.3391   1.3557   1.4079   1.4094   1.4692   1.4973   1.4994
     1.5097   1.5289   1.5774   1.5801   1.6013   1.6275   1.6301   1.6554
     1.6980   1.7264   1.7354   1.8084   1.8431   1.8634   1.8786   1.9095
     1.9264   1.9868   2.0953   2.2534

          k =-0.1250-0.1244 0.3592 (295365 PWs)   bands (ev):

   -17.6936 -17.6881 -17.3205 -17.3177 -17.3153 -17.3107 -17.2499 -17.2498
   -15.5511 -15.5502 -14.0712 -14.0697 -14.0662 -14.0660 -14.0576 -14.0554
   -14.0543 -14.0518 -14.0515 -14.0498 -14.0471 -14.0453 -14.0347 -14.0334
   -14.0322 -14.0321 -14.0315 -14.0309 -14.0308 -14.0293 -14.0284 -14.0260
   -14.0259 -14.0248 -14.0176 -14.0161 -14.0154 -14.0149 -14.0144 -14.0135
   -14.0129 -14.0125 -14.0124 -14.0104 -14.0103 -14.0092 -13.9966 -13.9949
   -13.9945 -13.9935 -10.2776 -10.2758 -10.2677 -10.2663 -10.2403 -10.2376
    -9.5479  -9.5458  -9.4290  -9.3750  -9.3014  -9.2460  -9.2421  -9.2128
    -9.1751  -9.1644  -9.0239  -9.0116  -8.9928  -8.9828  -8.9615  -8.9568
    -8.9529  -8.9383  -8.9049  -8.9035  -8.8590  -8.8411  -8.8317  -8.7999
    -8.7527  -8.7420  -7.5368  -7.5319  -6.9630  -6.9609  -6.7628  -6.7606
    -6.7567  -6.7536  -6.7488  -6.7427  -6.7308  -6.7273  -6.7265  -6.7216
    -6.6646  -6.6606  -5.5404  -5.3683  -5.2058  -5.2032  -5.1360  -5.0967
    -4.9706  -4.9323  -4.7295  -4.6374  -4.6202  -4.6128  -4.5917  -4.5896
    -4.5830  -4.5098  -3.6614  -3.6589  -3.1198  -3.1159  -2.6199  -2.6133
    -2.6055  -2.5987  -2.5806  -2.5787  -2.5619  -2.5595  -2.5297  -2.5257
    -2.5234  -2.5202  -0.5732  -0.5481  -0.5422  -0.4953  -0.4061  -0.3658
    -0.3588  -0.3477  -0.2363  -0.2148  -0.1917  -0.0994   0.0767   0.1476
     0.3066   0.3430   0.4164   0.4463   0.4848   0.5157   0.5385   0.5798
     0.5897   0.6047   0.6296   0.6563   0.6839   0.7173   0.8352   0.8832
     0.8851   0.9262   0.9771   1.0102   1.0645   1.0709   1.1149   1.1208
     1.1515   1.1581   1.1810   1.1979   1.2825   1.2883   1.3153   1.3359
     1.3480   1.3749   1.3976   1.3993   1.4541   1.4707   1.4903   1.5136
     1.5455   1.5552   1.5632   1.5659   1.6060   1.6147   1.6434   1.6586
     1.6902   1.7267   1.7495   1.7688   1.7832   1.8325   1.8348   1.8471
     1.8879   1.8945   2.1024   2.1389

          k =-0.1250 0.1244-0.3592 (295365 PWs)   bands (ev):

   -17.6936 -17.6881 -17.3205 -17.3177 -17.3153 -17.3107 -17.2499 -17.2498
   -15.5511 -15.5502 -14.0712 -14.0697 -14.0662 -14.0660 -14.0576 -14.0554
   -14.0543 -14.0518 -14.0515 -14.0498 -14.0471 -14.0453 -14.0347 -14.0333
   -14.0322 -14.0321 -14.0315 -14.0309 -14.0308 -14.0293 -14.0284 -14.0260
   -14.0259 -14.0248 -14.0176 -14.0161 -14.0154 -14.0149 -14.0144 -14.0135
   -14.0129 -14.0125 -14.0124 -14.0104 -14.0103 -14.0092 -13.9966 -13.9949
   -13.9945 -13.9935 -10.2786 -10.2768 -10.2667 -10.2652 -10.2404 -10.2376
    -9.5476  -9.5456  -9.4310  -9.3764  -9.2992  -9.2414  -9.2405  -9.2146
    -9.1744  -9.1681  -9.0238  -9.0122  -8.9951  -8.9848  -8.9649  -8.9537
    -8.9477  -8.9364  -8.9072  -8.9038  -8.8563  -8.8463  -8.8303  -8.8014
    -8.7513  -8.7408  -7.5368  -7.5318  -6.9630  -6.9609  -6.7628  -6.7608
    -6.7566  -6.7527  -6.7490  -6.7431  -6.7310  -6.7273  -6.7265  -6.7219
    -6.6646  -6.6606  -5.5404  -5.3682  -5.2059  -5.2033  -5.1356  -5.0973
    -4.9706  -4.9334  -4.7287  -4.6341  -4.6220  -4.6145  -4.5915  -4.5886
    -4.5822  -4.5111  -3.6612  -3.6587  -3.1198  -3.1159  -2.6200  -2.6130
    -2.6051  -2.5984  -2.5804  -2.5788  -2.5622  -2.5609  -2.5290  -2.5257
    -2.5236  -2.5198  -0.5852  -0.5502  -0.5371  -0.4895  -0.4049  -0.3701
    -0.3587  -0.3389  -0.2419  -0.2075  -0.1910  -0.1036   0.0810   0.1465
     0.3045   0.3411   0.4179   0.4549   0.4936   0.5104   0.5405   0.5709
     0.5952   0.5965   0.6285   0.6565   0.6654   0.7335   0.8397   0.8741
     0.8828   0.9184   0.9675   1.0066   1.0570   1.0802   1.1064   1.1112
     1.1488   1.1661   1.1829   1.1975   1.2947   1.3092   1.3268   1.3492
     1.3588   1.3616   1.3811   1.4124   1.4515   1.4625   1.4810   1.5238
     1.5414   1.5503   1.5689   1.5700   1.6146   1.6172   1.6437   1.6531
     1.7059   1.7155   1.7320   1.7684   1.7894   1.8334   1.8411   1.8459
     1.8847   1.8910   2.1029   2.1361

          k = 0.1250-0.1244-0.3592 (295365 PWs)   bands (ev):

   -17.6936 -17.6881 -17.3205 -17.3177 -17.3153 -17.3107 -17.2499 -17.2498
   -15.5511 -15.5502 -14.0712 -14.0697 -14.0662 -14.0660 -14.0576 -14.0554
   -14.0543 -14.0518 -14.0515 -14.0498 -14.0471 -14.0453 -14.0347 -14.0333
   -14.0322 -14.0321 -14.0315 -14.0309 -14.0308 -14.0293 -14.0284 -14.0260
   -14.0259 -14.0248 -14.0176 -14.0161 -14.0154 -14.0149 -14.0144 -14.0135
   -14.0129 -14.0125 -14.0124 -14.0104 -14.0103 -14.0092 -13.9966 -13.9949
   -13.9945 -13.9935 -10.2786 -10.2768 -10.2667 -10.2652 -10.2404 -10.2376
    -9.5475  -9.5457  -9.4313  -9.3759  -9.2993  -9.2414  -9.2407  -9.2143
    -9.1742  -9.1686  -9.0246  -9.0123  -8.9931  -8.9841  -8.9634  -8.9579
    -8.9471  -8.9363  -8.9083  -8.9026  -8.8549  -8.8472  -8.8307  -8.8010
    -8.7514  -8.7408  -7.5367  -7.5318  -6.9630  -6.9609  -6.7626  -6.7610
    -6.7566  -6.7529  -6.7490  -6.7429  -6.7310  -6.7271  -6.7267  -6.7218
    -6.6645  -6.6606  -5.5403  -5.3683  -5.2059  -5.2033  -5.1356  -5.0973
    -4.9706  -4.9334  -4.7284  -4.6342  -4.6220  -4.6145  -4.5915  -4.5885
    -4.5823  -4.5111  -3.6612  -3.6587  -3.1198  -3.1159  -2.6200  -2.6130
    -2.6050  -2.5984  -2.5805  -2.5786  -2.5631  -2.5603  -2.5290  -2.5252
    -2.5234  -2.5204  -0.5861  -0.5493  -0.5366  -0.4898  -0.4055  -0.3670
    -0.3578  -0.3401  -0.2437  -0.2088  -0.1917  -0.1033   0.0803   0.1470
     0.3055   0.3419   0.4182   0.4550   0.4939   0.5112   0.5389   0.5708
     0.5946   0.5967   0.6293   0.6568   0.6655   0.7319   0.8429   0.8735
     0.8835   0.9156   0.9686   1.0046   1.0549   1.0825   1.1096   1.1123
     1.1482   1.1657   1.1812   1.1989   1.2938   1.3108   1.3310   1.3462
     1.3551   1.3592   1.3828   1.4094   1.4522   1.4636   1.4827   1.5225
     1.5418   1.5508   1.5668   1.5705   1.6162   1.6188   1.6415   1.6503
     1.7062   1.7201   1.7313   1.7699   1.7894   1.8247   1.8406   1.8520
     1.8854   1.8912   2.1022   2.1371

          k =-0.1250-0.3733 0.1197 (295408 PWs)   bands (ev):

   -17.6936 -17.6881 -17.3205 -17.3178 -17.3153 -17.3107 -17.2499 -17.2498
   -15.5511 -15.5502 -14.0730 -14.0719 -14.0640 -14.0635 -14.0590 -14.0580
   -14.0521 -14.0511 -14.0495 -14.0482 -14.0479 -14.0459 -14.0347 -14.0335
   -14.0323 -14.0321 -14.0316 -14.0312 -14.0307 -14.0299 -14.0285 -14.0262
   -14.0259 -14.0249 -14.0176 -14.0161 -14.0154 -14.0149 -14.0144 -14.0135
   -14.0129 -14.0125 -14.0124 -14.0104 -14.0103 -14.0092 -13.9966 -13.9949
   -13.9945 -13.9935 -10.2742 -10.2722 -10.2706 -10.2691 -10.2412 -10.2385
    -9.5553  -9.5517  -9.4086  -9.3485  -9.3129  -9.2489  -9.2409  -9.1846
    -9.1606  -9.1529  -9.0950  -9.0944  -9.0143  -8.9928  -8.9443  -8.9395
    -8.9298  -8.9216  -8.9111  -8.8945  -8.8506  -8.8276  -8.8259  -8.7848
    -8.7576  -8.7448  -7.5362  -7.5314  -6.9628  -6.9608  -6.7624  -6.7600
    -6.7568  -6.7540  -6.7526  -6.7460  -6.7310  -6.7287  -6.7267  -6.7220
    -6.6616  -6.6573  -5.5408  -5.3717  -5.2069  -5.2040  -5.1268  -5.1016
    -4.9650  -4.9433  -4.7197  -4.6402  -4.6161  -4.6078  -4.5988  -4.5936
    -4.5752  -4.4989  -3.6618  -3.6593  -3.1197  -3.1159  -2.6228  -2.6162
    -2.5990  -2.5925  -2.5759  -2.5751  -2.5684  -2.5658  -2.5309  -2.5268
    -2.5248  -2.5220  -0.6591  -0.6225  -0.5945  -0.5500  -0.5226  -0.4843
    -0.4515  -0.3809  -0.2533  -0.0836  -0.0489   0.0362   0.1496   0.1523
     0.1943   0.3854   0.4164   0.4785   0.5124   0.5276   0.5796   0.5880
     0.6175   0.6381   0.6748   0.7337   0.7691   0.8241   0.8595   0.9080
     0.9194   0.9530   1.0424   1.0459   1.0826   1.0837   1.1197   1.1257
     1.1509   1.1577   1.1953   1.2111   1.2321   1.2344   1.2671   1.2747
     1.3173   1.3237   1.3318   1.3556   1.4057   1.4109   1.4816   1.4953
     1.5016   1.5429   1.5570   1.5711   1.6018   1.6681   1.6732   1.6809
     1.6832   1.7221   1.7280   1.7852   1.8203   1.8669   1.8828   1.9114
     1.9482   1.9542   2.0275   2.1050

          k =-0.1250 0.3733-0.1197 (295408 PWs)   bands (ev):

   -17.6936 -17.6881 -17.3205 -17.3178 -17.3153 -17.3107 -17.2499 -17.2498
   -15.5511 -15.5502 -14.0730 -14.0719 -14.0640 -14.0635 -14.0590 -14.0580
   -14.0521 -14.0511 -14.0495 -14.0482 -14.0478 -14.0459 -14.0347 -14.0335
   -14.0323 -14.0321 -14.0316 -14.0312 -14.0307 -14.0299 -14.0285 -14.0262
   -14.0259 -14.0249 -14.0176 -14.0161 -14.0154 -14.0149 -14.0144 -14.0135
   -14.0129 -14.0125 -14.0124 -14.0104 -14.0103 -14.0092 -13.9966 -13.9949
   -13.9945 -13.9935 -10.2763 -10.2741 -10.2685 -10.2670 -10.2415 -10.2383
    -9.5546  -9.5524  -9.4129  -9.3488  -9.2923  -9.2677  -9.2409  -9.1838
    -9.1599  -9.1501  -9.1024  -9.0879  -9.0212  -8.9871  -8.9455  -8.9332
    -8.9258  -8.9227  -8.9178  -8.8924  -8.8530  -8.8316  -8.8269  -8.7814
    -8.7593  -8.7422  -7.5363  -7.5312  -6.9629  -6.9608  -6.7619  -6.7605
    -6.7567  -6.7536  -6.7527  -6.7459  -6.7310  -6.7288  -6.7266  -6.7224
    -6.6614  -6.6574  -5.5410  -5.3713  -5.2070  -5.2042  -5.1259  -5.1017
    -4.9661  -4.9434  -4.7245  -4.6327  -4.6193  -4.6074  -4.5966  -4.5949
    -4.5710  -4.5033  -3.6617  -3.6591  -3.1197  -3.1159  -2.6237  -2.6152
    -2.5976  -2.5919  -2.5770  -2.5755  -2.5694  -2.5662  -2.5304  -2.5265
    -2.5257  -2.5209  -0.6625  -0.6206  -0.5944  -0.5597  -0.5263  -0.4781
    -0.4432  -0.3820  -0.2521  -0.0804  -0.0484   0.0287   0.1498   0.1621
     0.2045   0.3788   0.4147   0.4939   0.4969   0.5405   0.5492   0.5876
     0.6242   0.6349   0.6666   0.7463   0.7773   0.8131   0.8412   0.8804
     0.9361   0.9631   1.0330   1.0414   1.0805   1.1030   1.1191   1.1215
     1.1591   1.1704   1.1893   1.2046   1.2188   1.2578   1.2637   1.2855
     1.3284   1.3304   1.3448   1.3584   1.3847   1.3951   1.4900   1.4927
     1.5073   1.5387   1.5577   1.5886   1.5891   1.6574   1.6633   1.6805
     1.6997   1.7099   1.7467   1.7914   1.8147   1.8485   1.8834   1.9133
     1.9430   1.9700   2.0144   2.1125

          k = 0.1250-0.3733-0.1197 (295408 PWs)   bands (ev):

   -17.6936 -17.6881 -17.3205 -17.3178 -17.3153 -17.3107 -17.2499 -17.2498
   -15.5511 -15.5502 -14.0730 -14.0719 -14.0640 -14.0635 -14.0590 -14.0580
   -14.0521 -14.0511 -14.0495 -14.0482 -14.0478 -14.0459 -14.0347 -14.0335
   -14.0323 -14.0321 -14.0316 -14.0312 -14.0307 -14.0299 -14.0285 -14.0262
   -14.0259 -14.0249 -14.0176 -14.0161 -14.0154 -14.0149 -14.0144 -14.0135
   -14.0129 -14.0125 -14.0124 -14.0104 -14.0103 -14.0092 -13.9966 -13.9949
   -13.9945 -13.9935 -10.2763 -10.2741 -10.2685 -10.2670 -10.2415 -10.2383
    -9.5546  -9.5524  -9.4131  -9.3486  -9.2918  -9.2677  -9.2418  -9.1815
    -9.1597  -9.1530  -9.1031  -9.0868  -9.0208  -8.9861  -8.9451  -8.9364
    -8.9266  -8.9201  -8.9178  -8.8928  -8.8523  -8.8318  -8.8272  -8.7810
    -8.7595  -8.7422  -7.5363  -7.5312  -6.9629  -6.9608  -6.7619  -6.7606
    -6.7570  -6.7535  -6.7524  -6.7460  -6.7310  -6.7286  -6.7267  -6.7224
    -6.6614  -6.6574  -5.5410  -5.3714  -5.2070  -5.2042  -5.1259  -5.1016
    -4.9664  -4.9430  -4.7246  -4.6328  -4.6193  -4.6075  -4.5966  -4.5949
    -4.5709  -4.5034  -3.6617  -3.6591  -3.1197  -3.1159  -2.6236  -2.6153
    -2.5976  -2.5919  -2.5766  -2.5753  -2.5696  -2.5667  -2.5302  -2.5265
    -2.5254  -2.5212  -0.6622  -0.6209  -0.5932  -0.5605  -0.5258  -0.4760
    -0.4473  -0.3809  -0.2525  -0.0793  -0.0493   0.0283   0.1506   0.1616
     0.2044   0.3803   0.4137   0.4934   0.4964   0.5407   0.5508   0.5889
     0.6223   0.6344   0.6669   0.7478   0.7765   0.8139   0.8403   0.8805
     0.9355   0.9619   1.0341   1.0433   1.0816   1.1034   1.1192   1.1199
     1.1589   1.1715   1.1875   1.2040   1.2193   1.2626   1.2655   1.2812
     1.3260   1.3306   1.3454   1.3575   1.3842   1.3940   1.4906   1.4937
     1.5060   1.5359   1.5574   1.5899   1.5923   1.6564   1.6638   1.6795
     1.7019   1.7102   1.7446   1.7908   1.8145   1.8493   1.8818   1.9148
     1.9439   1.9685   2.0157   2.1128

          k =-0.1250-0.3733 0.3592 (295367 PWs)   bands (ev):

   -17.6936 -17.6881 -17.3205 -17.3178 -17.3153 -17.3107 -17.2499 -17.2498
   -15.5511 -15.5502 -14.0710 -14.0695 -14.0660 -14.0658 -14.0569 -14.0557
   -14.0534 -14.0523 -14.0504 -14.0485 -14.0480 -14.0464 -14.0347 -14.0335
   -14.0322 -14.0322 -14.0316 -14.0312 -14.0307 -14.0299 -14.0285 -14.0261
   -14.0260 -14.0250 -14.0176 -14.0161 -14.0154 -14.0149 -14.0144 -14.0135
   -14.0129 -14.0125 -14.0124 -14.0104 -14.0103 -14.0092 -13.9966 -13.9949
   -13.9945 -13.9935 -10.2740 -10.2723 -10.2705 -10.2691 -10.2411 -10.2384
    -9.5505  -9.5485  -9.3889  -9.3558  -9.2900  -9.2735  -9.2551  -9.2324
    -9.2148  -9.1867  -9.0208  -9.0198  -8.9806  -8.9773  -8.9534  -8.9498
    -8.9356  -8.9274  -8.8988  -8.8973  -8.8671  -8.8514  -8.8088  -8.7854
    -8.7680  -8.7564  -7.5364  -7.5317  -6.9629  -6.9608  -6.7616  -6.7602
    -6.7563  -6.7538  -6.7488  -6.7429  -6.7310  -6.7284  -6.7266  -6.7227
    -6.6647  -6.6607  -5.4309  -5.2722  -5.2565  -5.2055  -5.1990  -5.0946
    -5.0001  -4.8541  -4.8337  -4.7082  -4.6126  -4.6073  -4.5969  -4.5935
    -4.5847  -4.5653  -3.6621  -3.6596  -3.1197  -3.1160  -2.6163  -2.6135
    -2.5992  -2.5940  -2.5804  -2.5788  -2.5650  -2.5637  -2.5304  -2.5268
    -2.5239  -2.5210  -0.5282  -0.5028  -0.4490  -0.4221  -0.3349  -0.2754
    -0.2535  -0.1729  -0.1477  -0.0902  -0.0358   0.0144   0.1314   0.1351
     0.2305   0.2446   0.3443   0.3597   0.4287   0.4666   0.4802   0.5229
     0.5626   0.5780   0.6086   0.6241   0.7380   0.7572   0.7898   0.8205
     0.8655   0.8961   0.9270   0.9436   0.9755   0.9779   1.0358   1.0546
     1.1018   1.1027   1.1655   1.1747   1.1978   1.2049   1.2766   1.2794
     1.3464   1.3563   1.3879   1.3929   1.4469   1.4506   1.4920   1.4958
     1.5416   1.5636   1.5771   1.5875   1.5957   1.6369   1.6731   1.6813
     1.6994   1.7259   1.7575   1.7630   1.7785   1.8110   1.8546   1.8765
     1.9072   1.9181   1.9646   1.9881

          k =-0.1250 0.3733-0.3592 (295367 PWs)   bands (ev):

   -17.6936 -17.6881 -17.3205 -17.3178 -17.3153 -17.3107 -17.2499 -17.2498
   -15.5511 -15.5502 -14.0710 -14.0695 -14.0660 -14.0658 -14.0569 -14.0557
   -14.0534 -14.0523 -14.0504 -14.0485 -14.0480 -14.0464 -14.0347 -14.0335
   -14.0322 -14.0322 -14.0316 -14.0312 -14.0308 -14.0299 -14.0285 -14.0261
   -14.0260 -14.0250 -14.0176 -14.0161 -14.0154 -14.0149 -14.0144 -14.0135
   -14.0129 -14.0125 -14.0124 -14.0104 -14.0103 -14.0092 -13.9966 -13.9949
   -13.9945 -13.9935 -10.2759 -10.2743 -10.2685 -10.2670 -10.2412 -10.2384
    -9.5502  -9.5485  -9.3926  -9.3563  -9.2912  -9.2602  -9.2566  -9.2375
    -9.2052  -9.1974  -9.0249  -9.0154  -8.9908  -8.9745  -8.9491  -8.9458
    -8.9368  -8.9223  -8.9068  -8.8943  -8.8692  -8.8489  -8.8129  -8.7867
    -8.7662  -8.7538  -7.5364  -7.5316  -6.9630  -6.9609  -6.7614  -6.7606
    -6.7559  -6.7533  -6.7491  -6.7430  -6.7313  -6.7283  -6.7267  -6.7229
    -6.6647  -6.6607  -5.4309  -5.2719  -5.2564  -5.2057  -5.1991  -5.0952
    -5.0009  -4.8541  -4.8347  -4.7033  -4.6157  -4.6096  -4.5939  -4.5934
    -4.5837  -4.5668  -3.6620  -3.6595  -3.1197  -3.1160  -2.6168  -2.6128
    -2.5984  -2.5935  -2.5806  -2.5786  -2.5662  -2.5645  -2.5299  -2.5262
    -2.5243  -2.5207  -0.5334  -0.5080  -0.4494  -0.4165  -0.3352  -0.2755
    -0.2392  -0.1728  -0.1615  -0.0824  -0.0330   0.0110   0.1318   0.1409
     0.2293   0.2475   0.3404   0.3682   0.4314   0.4638   0.4741   0.5014
     0.5734   0.5782   0.6147   0.6154   0.7542   0.7606   0.7843   0.8066
     0.8527   0.8780   0.9390   0.9556   0.9606   0.9764   1.0305   1.0547
     1.0982   1.1033   1.1647   1.1676   1.2063   1.2323   1.2848   1.2869
     1.3484   1.3608   1.3860   1.3881   1.4474   1.4562   1.4879   1.5013
     1.5352   1.5499   1.5710   1.5939   1.6232   1.6392   1.6568   1.6760
     1.7063   1.7087   1.7486   1.7843   1.8042   1.8350   1.8391   1.8597
     1.8867   1.8909   1.9770   2.0027

          k = 0.1250-0.3733-0.3592 (295367 PWs)   bands (ev):

   -17.6936 -17.6881 -17.3205 -17.3178 -17.3153 -17.3107 -17.2499 -17.2498
   -15.5511 -15.5502 -14.0710 -14.0695 -14.0660 -14.0658 -14.0569 -14.0557
   -14.0534 -14.0523 -14.0504 -14.0485 -14.0480 -14.0464 -14.0347 -14.0335
   -14.0322 -14.0322 -14.0316 -14.0312 -14.0308 -14.0299 -14.0285 -14.0261
   -14.0260 -14.0250 -14.0176 -14.0161 -14.0154 -14.0149 -14.0144 -14.0135
   -14.0129 -14.0125 -14.0124 -14.0104 -14.0103 -14.0092 -13.9966 -13.9949
   -13.9945 -13.9935 -10.2759 -10.2743 -10.2685 -10.2670 -10.2412 -10.2384
    -9.5502  -9.5485  -9.3934  -9.3550  -9.2922  -9.2598  -9.2569  -9.2357
    -9.2065  -9.1976  -9.0262  -9.0156  -8.9878  -8.9727  -8.9516  -8.9451
    -8.9402  -8.9200  -8.9070  -8.8954  -8.8674  -8.8497  -8.8133  -8.7860
    -8.7667  -8.7538  -7.5364  -7.5317  -6.9630  -6.9609  -6.7613  -6.7607
    -6.7562  -6.7530  -6.7489  -6.7431  -6.7314  -6.7281  -6.7268  -6.7229
    -6.6647  -6.6607  -5.4307  -5.2739  -5.2545  -5.2057  -5.1990  -5.0952
    -5.0007  -4.8557  -4.8333  -4.7034  -4.6156  -4.6097  -4.5938  -4.5934
    -4.5836  -4.5670  -3.6620  -3.6595  -3.1197  -3.1160  -2.6165  -2.6131
    -2.5985  -2.5936  -2.5800  -2.5787  -2.5663  -2.5649  -2.5297  -2.5263
    -2.5238  -2.5213  -0.5351  -0.5034  -0.4546  -0.4128  -0.3348  -0.2771
    -0.2385  -0.1746  -0.1604  -0.0820  -0.0349   0.0092   0.1339   0.1394
     0.2286   0.2505   0.3445   0.3685   0.4305   0.4625   0.4720   0.5028
     0.5731   0.5769   0.6145   0.6164   0.7518   0.7619   0.7855   0.8075
     0.8523   0.8801   0.9355   0.9552   0.9570   0.9803   1.0309   1.0583
     1.0960   1.1041   1.1638   1.1676   1.2044   1.2354   1.2836   1.2854
     1.3509   1.3604   1.3851   1.3878   1.4443   1.4570   1.4857   1.5052
     1.5337   1.5522   1.5705   1.5934   1.6242   1.6383   1.6567   1.6745
     1.7078   1.7098   1.7515   1.7810   1.7997   1.8333   1.8424   1.8624
     1.8853   1.8920   1.9773   2.0028

          k =-0.3750-0.1244 0.1197 (295357 PWs)   bands (ev):

   -17.6936 -17.6881 -17.3205 -17.3177 -17.3153 -17.3107 -17.2499 -17.2498
   -15.5511 -15.5502 -14.0731 -14.0719 -14.0641 -14.0635 -14.0590 -14.0579
   -14.0519 -14.0506 -14.0496 -14.0482 -14.0475 -14.0458 -14.0348 -14.0334
   -14.0326 -14.0323 -14.0315 -14.0311 -14.0310 -14.0299 -14.0287 -14.0263
   -14.0259 -14.0250 -14.0176 -14.0161 -14.0154 -14.0149 -14.0144 -14.0135
   -14.0129 -14.0125 -14.0124 -14.0104 -14.0103 -14.0092 -13.9966 -13.9949
   -13.9945 -13.9935 -10.2742 -10.2719 -10.2717 -10.2699 -10.2405 -10.2378
    -9.5460  -9.5432  -9.4313  -9.3915  -9.2814  -9.2378  -9.2366  -9.1882
    -9.1436  -9.1391  -9.0956  -9.0935  -9.0329  -9.0020  -8.9592  -8.9456
    -8.9225  -8.9187  -8.9075  -8.9037  -8.8306  -8.8186  -8.8062  -8.7855
    -8.7746  -8.7585  -7.5367  -7.5319  -6.9631  -6.9611  -6.7660  -6.7631
    -6.7541  -6.7524  -6.7510  -6.7455  -6.7314  -6.7273  -6.7262  -6.7198
    -6.6616  -6.6574  -5.5329  -5.3515  -5.2067  -5.2041  -5.1278  -5.1164
    -4.9563  -4.9403  -4.7433  -4.6458  -4.6168  -4.6102  -4.5923  -4.5896
    -4.5831  -4.5095  -3.6617  -3.6592  -3.1198  -3.1159  -2.6246  -2.6178
    -2.6003  -2.5940  -2.5798  -2.5788  -2.5727  -2.5687  -2.5246  -2.5225
    -2.5200  -2.5194  -0.6697  -0.6533  -0.5649  -0.5429  -0.5150  -0.4650
    -0.3596  -0.3100  -0.2300  -0.1847  -0.0830  -0.0149   0.1065   0.1920
     0.2516   0.3995   0.4450   0.4644   0.4817   0.5464   0.5492   0.5993
     0.6290   0.6617   0.7020   0.7531   0.7851   0.8087   0.8600   0.8839
     0.9130   0.9946   1.0148   1.0327   1.0739   1.1145   1.1357   1.1361
     1.1772   1.1875   1.2121   1.2156   1.2272   1.2488   1.2509   1.2871
     1.3220   1.3358   1.3483   1.3673   1.3796   1.3832   1.4152   1.4297
     1.4777   1.4793   1.5479   1.5674   1.5988   1.6036   1.6690   1.6898
     1.7216   1.7231   1.7453   1.7978   1.8288   1.8620   1.8697   1.8846
     1.9248   1.9378   1.9973   2.0725

          k =-0.3750 0.1244-0.1197 (295357 PWs)   bands (ev):

   -17.6936 -17.6881 -17.3205 -17.3177 -17.3153 -17.3107 -17.2499 -17.2498
   -15.5511 -15.5502 -14.0731 -14.0719 -14.0641 -14.0635 -14.0590 -14.0579
   -14.0519 -14.0506 -14.0496 -14.0482 -14.0475 -14.0458 -14.0348 -14.0334
   -14.0326 -14.0323 -14.0315 -14.0311 -14.0310 -14.0299 -14.0287 -14.0263
   -14.0259 -14.0250 -14.0176 -14.0161 -14.0154 -14.0149 -14.0144 -14.0135
   -14.0129 -14.0125 -14.0124 -14.0104 -14.0103 -14.0092 -13.9966 -13.9949
   -13.9945 -13.9935 -10.2766 -10.2740 -10.2692 -10.2677 -10.2408 -10.2376
    -9.5454  -9.5433  -9.4389  -9.3829  -9.2739  -9.2508  -9.2334  -9.1877
    -9.1487  -9.1321  -9.1011  -9.0899  -9.0359  -8.9982  -8.9619  -8.9426
    -8.9224  -8.9122  -8.9093  -8.9064  -8.8375  -8.8201  -8.8053  -8.7834
    -8.7753  -8.7553  -7.5368  -7.5317  -6.9632  -6.9611  -6.7655  -6.7636
    -6.7543  -6.7526  -6.7499  -6.7459  -6.7313  -6.7273  -6.7263  -6.7203
    -6.6615  -6.6575  -5.5332  -5.3510  -5.2069  -5.2043  -5.1285  -5.1150
    -4.9561  -4.9416  -4.7475  -4.6388  -4.6198  -4.6090  -4.5920  -4.5903
    -4.5788  -4.5139  -3.6616  -3.6590  -3.1198  -3.1159  -2.6254  -2.6169
    -2.5989  -2.5934  -2.5813  -2.5790  -2.5723  -2.5701  -2.5243  -2.5233
    -2.5199  -2.5182  -0.6726  -0.6521  -0.5602  -0.5501  -0.5232  -0.4597
    -0.3480  -0.3138  -0.2286  -0.1950  -0.0748  -0.0057   0.1079   0.1945
     0.2520   0.3937   0.4506   0.4644   0.4708   0.5368   0.5546   0.5966
     0.6400   0.6501   0.6944   0.7592   0.7808   0.8162   0.8596   0.8697
     0.9197   0.9727   1.0017   1.0520   1.0883   1.0917   1.1346   1.1460
     1.1705   1.1871   1.2061   1.2106   1.2397   1.2562   1.2817   1.2987
     1.3139   1.3381   1.3509   1.3565   1.3723   1.3839   1.4199   1.4414
     1.4663   1.4884   1.5582   1.5712   1.5898   1.6207   1.6599   1.6725
     1.7074   1.7226   1.7581   1.8044   1.8201   1.8643   1.8718   1.8925
     1.9063   1.9484   1.9799   2.0848

          k = 0.3750-0.1244-0.1197 (295357 PWs)   bands (ev):

   -17.6936 -17.6881 -17.3205 -17.3177 -17.3153 -17.3107 -17.2499 -17.2498
   -15.5511 -15.5502 -14.0731 -14.0719 -14.0641 -14.0635 -14.0590 -14.0579
   -14.0519 -14.0506 -14.0496 -14.0482 -14.0475 -14.0458 -14.0348 -14.0334
   -14.0326 -14.0323 -14.0315 -14.0311 -14.0310 -14.0299 -14.0287 -14.0263
   -14.0259 -14.0250 -14.0176 -14.0161 -14.0154 -14.0149 -14.0144 -14.0135
   -14.0129 -14.0125 -14.0124 -14.0104 -14.0103 -14.0092 -13.9966 -13.9949
   -13.9945 -13.9935 -10.2767 -10.2740 -10.2692 -10.2677 -10.2408 -10.2376
    -9.5455  -9.5431  -9.4391  -9.3828  -9.2735  -9.2504  -9.2332  -9.1893
    -9.1505  -9.1287  -9.1005  -9.0917  -9.0358  -8.9976  -8.9619  -8.9426
    -8.9187  -8.9167  -8.9131  -8.9024  -8.8370  -8.8203  -8.8057  -8.7819
    -8.7765  -8.7553  -7.5368  -7.5317  -6.9632  -6.9611  -6.7654  -6.7637
    -6.7540  -6.7528  -6.7508  -6.7453  -6.7313  -6.7272  -6.7263  -6.7203
    -6.6615  -6.6575  -5.5332  -5.3510  -5.2069  -5.2043  -5.1284  -5.1151
    -4.9564  -4.9413  -4.7473  -4.6389  -4.6198  -4.6089  -4.5920  -4.5903
    -4.5789  -4.5138  -3.6616  -3.6590  -3.1198  -3.1159  -2.6254  -2.6169
    -2.5989  -2.5931  -2.5809  -2.5794  -2.5735  -2.5693  -2.5247  -2.5221
    -2.5204  -2.5185  -0.6726  -0.6519  -0.5597  -0.5525  -0.5206  -0.4597
    -0.3485  -0.3139  -0.2295  -0.1944  -0.0762  -0.0044   0.1067   0.1940
     0.2531   0.3944   0.4503   0.4643   0.4716   0.5363   0.5538   0.5984
     0.6395   0.6499   0.6936   0.7594   0.7823   0.8152   0.8617   0.8695
     0.9190   0.9735   0.9975   1.0505   1.0895   1.0915   1.1362   1.1454
     1.1731   1.1879   1.2078   1.2123   1.2407   1.2546   1.2864   1.3005
     1.3132   1.3301   1.3497   1.3585   1.3703   1.3810   1.4199   1.4425
     1.4665   1.4877   1.5560   1.5712   1.5914   1.6177   1.6604   1.6729
     1.7090   1.7248   1.7568   1.8035   1.8185   1.8647   1.8751   1.8914
     1.9078   1.9448   1.9825   2.0854

          k =-0.3750-0.1244 0.3592 (295363 PWs)   bands (ev):

   -17.6936 -17.6881 -17.3205 -17.3177 -17.3153 -17.3107 -17.2499 -17.2498
   -15.5511 -15.5502 -14.0711 -14.0696 -14.0661 -14.0659 -14.0569 -14.0555
   -14.0533 -14.0520 -14.0505 -14.0484 -14.0477 -14.0462 -14.0348 -14.0334
   -14.0325 -14.0323 -14.0315 -14.0311 -14.0310 -14.0299 -14.0286 -14.0262
   -14.0260 -14.0250 -14.0176 -14.0161 -14.0154 -14.0149 -14.0144 -14.0135
   -14.0129 -14.0125 -14.0124 -14.0104 -14.0103 -14.0092 -13.9966 -13.9949
   -13.9945 -13.9935 -10.2738 -10.2721 -10.2715 -10.2700 -10.2405 -10.2379
    -9.5434  -9.5416  -9.4018  -9.3633  -9.3306  -9.2875  -9.2414  -9.2209
    -9.1757  -9.1661  -9.0240  -9.0160  -8.9978  -8.9781  -8.9689  -8.9567
    -8.9404  -8.9384  -8.8859  -8.8840  -8.8493  -8.8358  -8.8124  -8.7918
    -8.7765  -8.7659  -7.5369  -7.5323  -6.9632  -6.9611  -6.7642  -6.7633
    -6.7542  -6.7517  -6.7483  -6.7424  -6.7322  -6.7277  -6.7253  -6.7197
    -6.6647  -6.6607  -5.4233  -5.2692  -5.2269  -5.2057  -5.2021  -5.0728
    -5.0249  -4.8698  -4.8546  -4.7185  -4.6124  -4.6059  -4.5968  -4.5910
    -4.5868  -4.5704  -3.6620  -3.6595  -3.1197  -3.1160  -2.6185  -2.6160
    -2.6003  -2.5951  -2.5831  -2.5806  -2.5692  -2.5663  -2.5255  -2.5229
    -2.5204  -2.5187  -0.5156  -0.4797  -0.4110  -0.3973  -0.2924  -0.2689
    -0.2322  -0.1999  -0.1570  -0.1312  -0.0371  -0.0092   0.0933   0.1113
     0.2800   0.2902   0.3579   0.3638   0.4181   0.4398   0.4919   0.5109
     0.5265   0.5681   0.6213   0.6477   0.7610   0.7631   0.8213   0.8472
     0.8866   0.8894   0.9680   0.9683   1.0094   1.0182   1.0269   1.0461
     1.1050   1.1156   1.1454   1.1480   1.1919   1.2134   1.2459   1.2715
     1.3448   1.3509   1.3714   1.3820   1.4040   1.4107   1.4516   1.4563
     1.5352   1.5557   1.5601   1.5861   1.6167   1.6221   1.6470   1.6721
     1.7061   1.7184   1.7283   1.7596   1.8176   1.8265   1.8500   1.8668
     1.8814   1.8883   1.9546   1.9748

          k =-0.3750 0.1244-0.3592 (295363 PWs)   bands (ev):

   -17.6936 -17.6881 -17.3205 -17.3177 -17.3153 -17.3107 -17.2499 -17.2498
   -15.5511 -15.5502 -14.0711 -14.0696 -14.0661 -14.0659 -14.0569 -14.0555
   -14.0533 -14.0520 -14.0505 -14.0484 -14.0477 -14.0462 -14.0348 -14.0334
   -14.0325 -14.0323 -14.0315 -14.0311 -14.0310 -14.0299 -14.0286 -14.0262
   -14.0260 -14.0250 -14.0176 -14.0161 -14.0154 -14.0149 -14.0144 -14.0135
   -14.0129 -14.0125 -14.0124 -14.0104 -14.0103 -14.0092 -13.9966 -13.9949
   -13.9945 -13.9935 -10.2761 -10.2744 -10.2691 -10.2677 -10.2406 -10.2379
    -9.5431  -9.5413  -9.4078  -9.3599  -9.3313  -9.2823  -9.2325  -9.2298
    -9.1737  -9.1707  -9.0234  -9.0191  -8.9945  -8.9804  -8.9699  -8.9566
    -8.9402  -8.9348  -8.8907  -8.8792  -8.8523  -8.8318  -8.8169  -8.7967
    -8.7724  -8.7629  -7.5369  -7.5322  -6.9633  -6.9612  -6.7642  -6.7632
    -6.7542  -6.7509  -6.7484  -6.7428  -6.7323  -6.7278  -6.7252  -6.7200
    -6.6647  -6.6607  -5.4232  -5.2682  -5.2279  -5.2059  -5.2021  -5.0732
    -5.0254  -4.8703  -4.8554  -4.7139  -4.6155  -4.6082  -4.5942  -4.5908
    -4.5853  -4.5717  -3.6619  -3.6594  -3.1198  -3.1160  -2.6188  -2.6154
    -2.5995  -2.5948  -2.5824  -2.5813  -2.5693  -2.5679  -2.5248  -2.5236
    -2.5201  -2.5183  -0.5172  -0.4865  -0.4066  -0.4017  -0.2866  -0.2645
    -0.2345  -0.2070  -0.1519  -0.1350  -0.0222  -0.0083   0.1003   0.1100
     0.2716   0.2958   0.3542   0.3643   0.4231   0.4272   0.4922   0.5017
     0.5325   0.5601   0.6321   0.6397   0.7536   0.7723   0.8318   0.8501
     0.8839   0.9027   0.9369   0.9383   0.9822   1.0110   1.0582   1.0593
     1.1029   1.1145   1.1269   1.1482   1.2208   1.2338   1.2588   1.2637
     1.3480   1.3521   1.3736   1.3750   1.4075   1.4142   1.4532   1.4575
     1.5382   1.5525   1.5584   1.5690   1.6308   1.6401   1.6584   1.6759
     1.6980   1.7008   1.7386   1.7793   1.8146   1.8225   1.8387   1.8465
     1.8588   1.8745   1.9691   1.9933

          k = 0.3750-0.1244-0.3592 (295363 PWs)   bands (ev):

   -17.6936 -17.6881 -17.3205 -17.3177 -17.3153 -17.3107 -17.2499 -17.2498
   -15.5511 -15.5502 -14.0711 -14.0696 -14.0661 -14.0659 -14.0569 -14.0555
   -14.0533 -14.0520 -14.0505 -14.0484 -14.0477 -14.0462 -14.0348 -14.0334
   -14.0325 -14.0323 -14.0315 -14.0311 -14.0310 -14.0299 -14.0286 -14.0262
   -14.0260 -14.0250 -14.0176 -14.0161 -14.0154 -14.0149 -14.0144 -14.0135
   -14.0129 -14.0125 -14.0124 -14.0104 -14.0103 -14.0092 -13.9966 -13.9949
   -13.9945 -13.9935 -10.2761 -10.2744 -10.2691 -10.2677 -10.2406 -10.2379
    -9.5433  -9.5411  -9.4084  -9.3592  -9.3312  -9.2821  -9.2327  -9.2300
    -9.1751  -9.1693  -9.0246  -9.0184  -8.9943  -8.9776  -8.9714  -8.9575
    -8.9385  -8.9364  -8.8932  -8.8771  -8.8513  -8.8325  -8.8176  -8.7956
    -8.7730  -8.7627  -7.5369  -7.5322  -6.9633  -6.9612  -6.7639  -6.7635
    -6.7538  -6.7514  -6.7487  -6.7424  -6.7324  -6.7278  -6.7251  -6.7201
    -6.6647  -6.6607  -5.4232  -5.2688  -5.2272  -5.2059  -5.2019  -5.0735
    -5.0256  -4.8713  -4.8538  -4.7143  -4.6155  -4.6081  -4.5944  -4.5907
    -4.5854  -4.5716  -3.6619  -3.6594  -3.1197  -3.1160  -2.6189  -2.6153
    -2.5994  -2.5947  -2.5834  -2.5804  -2.5705  -2.5671  -2.5252  -2.5223
    -2.5207  -2.5185  -0.5191  -0.4840  -0.4085  -0.3991  -0.2877  -0.2647
    -0.2323  -0.2056  -0.1524  -0.1382  -0.0265  -0.0067   0.0982   0.1116
     0.2748   0.2973   0.3538   0.3652   0.4250   0.4268   0.4904   0.4994
     0.5323   0.5624   0.6335   0.6373   0.7552   0.7710   0.8319   0.8492
     0.8833   0.9061   0.9341   0.9363   0.9808   1.0129   1.0581   1.0620
     1.1028   1.1148   1.1300   1.1453   1.2230   1.2356   1.2535   1.2678
     1.3472   1.3508   1.3704   1.3750   1.4073   1.4139   1.4544   1.4560
     1.5403   1.5521   1.5590   1.5687   1.6248   1.6402   1.6590   1.6772
     1.6996   1.7035   1.7384   1.7789   1.8138   1.8189   1.8397   1.8510
     1.8617   1.8699   1.9701   1.9933

          k =-0.3750-0.3733 0.1197 (295442 PWs)   bands (ev):

   -17.6936 -17.6881 -17.3205 -17.3177 -17.3153 -17.3107 -17.2499 -17.2498
   -15.5511 -15.5502 -14.0729 -14.0717 -14.0638 -14.0633 -14.0587 -14.0578
   -14.0510 -14.0500 -14.0494 -14.0480 -14.0478 -14.0465 -14.0348 -14.0339
   -14.0328 -14.0324 -14.0318 -14.0314 -14.0312 -14.0303 -14.0287 -14.0263
   -14.0260 -14.0251 -14.0176 -14.0162 -14.0154 -14.0149 -14.0144 -14.0135
   -14.0129 -14.0125 -14.0123 -14.0104 -14.0103 -14.0092 -13.9966 -13.9950
   -13.9945 -13.9935 -10.2746 -10.2729 -10.2697 -10.2684 -10.2421 -10.2383
[...]
    -5.0320  -5.0053  -4.9877  -4.8525  -4.6401  -4.6383  -4.6322  -4.6251
    -4.6193  -4.6130  -3.6941  -3.6926  -3.1515  -3.1512  -2.6438  -2.6423
    -2.6303  -2.6238  -2.6205  -2.6161  -2.6067  -2.6028  -2.5707  -2.5667
    -2.5597  -2.5581  -0.3647  -0.3435  -0.3163  -0.2979  -0.2499  -0.2379
    -0.1781  -0.1434  -0.1399  -0.0879  -0.0558  -0.0435   0.0864   0.0995
     0.2212   0.2466   0.2947   0.3253   0.3474   0.3527   0.3733   0.4089
     0.4503   0.4755   0.5111   0.5311   0.7410   0.7545   0.7801   0.8201
     0.8526   0.8540   0.9008   0.9046   0.9416   0.9421   0.9682   0.9856
     1.0299   1.0548   1.0725   1.0983   1.1644   1.1764   1.1985   1.2001
     1.2253   1.2589   1.3015   1.3228   1.3875   1.3928   1.4274   1.4403
     1.4470   1.4482   1.5155   1.5329   1.5529   1.5546   1.5928   1.6022
     1.6657   1.6686   1.7075   1.7145   1.7695   1.7752   1.8284   1.8350
     1.8722   1.8811   1.9046   1.9071

          k =-0.3740 0.3719-0.3603 (295347 PWs)   bands (ev):

   -17.7311 -17.7306 -17.3602 -17.3589 -17.3568 -17.3508 -17.2757 -17.2737
   -15.5882 -15.5881 -14.0931 -14.0923 -14.0887 -14.0872 -14.0784 -14.0774
   -14.0746 -14.0736 -14.0724 -14.0719 -14.0700 -14.0688 -14.0568 -14.0555
   -14.0550 -14.0547 -14.0545 -14.0540 -14.0522 -14.0505 -14.0494 -14.0490
   -14.0473 -14.0457 -14.0386 -14.0371 -14.0361 -14.0360 -14.0347 -14.0345
   -14.0342 -14.0339 -14.0328 -14.0325 -14.0321 -14.0305 -14.0189 -14.0172
   -14.0163 -14.0160 -10.3092 -10.3082 -10.2935 -10.2904 -10.2844 -10.2795
    -9.5807  -9.5787  -9.4069  -9.3676  -9.3462  -9.3214  -9.2923  -9.2907
    -9.2483  -9.2378  -9.0537  -9.0438  -9.0302  -9.0166  -8.9651  -8.9632
    -8.9557  -8.9468  -8.9081  -8.8921  -8.8744  -8.8643  -8.8431  -8.8238
    -8.8050  -8.7963  -7.5756  -7.5746  -6.9959  -6.9954  -6.8065  -6.8062
    -6.8027  -6.7994  -6.7912  -6.7869  -6.7691  -6.7651  -6.7605  -6.7582
    -6.6906  -6.6877  -5.3508  -5.2511  -5.2478  -5.1995  -5.1805  -5.1485
    -5.0306  -5.0067  -4.9918  -4.8468  -4.6427  -4.6390  -4.6321  -4.6261
    -4.6171  -4.6128  -3.6940  -3.6925  -3.1515  -3.1511  -2.6445  -2.6417
    -2.6276  -2.6254  -2.6195  -2.6156  -2.6083  -2.6046  -2.5705  -2.5661
    -2.5597  -2.5579  -0.3602  -0.3575  -0.3373  -0.3059  -0.2397  -0.2082
    -0.1678  -0.1571  -0.1337  -0.0806  -0.0650  -0.0387   0.0937   0.1192
     0.1998   0.2549   0.3002   0.3091   0.3300   0.3467   0.3795   0.4107
     0.4605   0.4756   0.5164   0.5179   0.7218   0.7719   0.7972   0.8036
     0.8292   0.8546   0.8863   0.9009   0.9401   0.9415   0.9762   1.0005
     1.0276   1.0490   1.0779   1.0882   1.1638   1.1755   1.2047   1.2251
     1.2550   1.2670   1.3014   1.3216   1.3847   1.3888   1.4045   1.4283
     1.4589   1.4650   1.5190   1.5250   1.5437   1.5601   1.5921   1.6067
     1.6533   1.6716   1.7040   1.7338   1.7773   1.7861   1.8071   1.8182
     1.8430   1.8648   1.9186   1.9417

          k = 0.3740-0.3719-0.3603 (295347 PWs)   bands (ev):

   -17.7311 -17.7306 -17.3602 -17.3589 -17.3568 -17.3508 -17.2757 -17.2737
   -15.5882 -15.5881 -14.0931 -14.0923 -14.0887 -14.0872 -14.0784 -14.0774
   -14.0746 -14.0736 -14.0724 -14.0719 -14.0700 -14.0688 -14.0568 -14.0555
   -14.0550 -14.0547 -14.0545 -14.0540 -14.0522 -14.0505 -14.0494 -14.0490
   -14.0473 -14.0457 -14.0386 -14.0371 -14.0361 -14.0360 -14.0347 -14.0345
   -14.0342 -14.0339 -14.0328 -14.0325 -14.0321 -14.0305 -14.0189 -14.0172
   -14.0163 -14.0160 -10.3092 -10.3082 -10.2935 -10.2904 -10.2844 -10.2796
    -9.5808  -9.5786  -9.4075  -9.3664  -9.3472  -9.3208  -9.2923  -9.2899
    -9.2495  -9.2376  -9.0547  -9.0434  -9.0297  -9.0150  -8.9665  -8.9647
    -8.9535  -8.9478  -8.9090  -8.8898  -8.8757  -8.8640  -8.8432  -8.8233
    -8.8056  -8.7960  -7.5756  -7.5746  -6.9959  -6.9954  -6.8071  -6.8057
    -6.8027  -6.7991  -6.7912  -6.7871  -6.7690  -6.7651  -6.7597  -6.7590
    -6.6906  -6.6877  -5.3506  -5.2512  -5.2480  -5.2005  -5.1798  -5.1480
    -5.0320  -5.0057  -4.9912  -4.8472  -4.6427  -4.6390  -4.6320  -4.6261
    -4.6171  -4.6128  -3.6940  -3.6925  -3.1515  -3.1511  -2.6443  -2.6415
    -2.6276  -2.6259  -2.6198  -2.6156  -2.6081  -2.6044  -2.5708  -2.5662
    -2.5601  -2.5573  -0.3579  -0.3568  -0.3374  -0.3073  -0.2407  -0.2070
    -0.1696  -0.1558  -0.1344  -0.0815  -0.0662  -0.0412   0.0949   0.1179
     0.2037   0.2561   0.3027   0.3097   0.3273   0.3504   0.3775   0.4095
     0.4576   0.4779   0.5161   0.5179   0.7210   0.7713   0.7994   0.8041
     0.8297   0.8560   0.8835   0.8995   0.9383   0.9393   0.9788   1.0035
     1.0292   1.0477   1.0766   1.0880   1.1618   1.1800   1.2063   1.2229
     1.2527   1.2684   1.3016   1.3194   1.3858   1.3879   1.4043   1.4273
     1.4590   1.4660   1.5182   1.5227   1.5443   1.5601   1.5944   1.6065
     1.6537   1.6724   1.7031   1.7343   1.7772   1.7842   1.8073   1.8199
     1.8437   1.8640   1.9193   1.9412

     highest occupied level (ev):     2.2378

!    total energy              =  -16545.24391731 Ry
     Harris-Foulkes estimate   =  -16545.24391731 Ry
     estimated scf accuracy    <          4.7E-10 Ry

     total all-electron energy =   -677464.510787 Ry

     The total energy is the sum of the following terms:

     one-electron contribution =    -828.81344836 Ry
     hartree contribution      =     606.17034464 Ry
     xc contribution           =    -765.76706194 Ry
     ewald contribution        =   -1186.03500565 Ry
     DFT-D3 Dispersion         =      -0.65071395 Ry
     one-center paw contrib.   =  -14370.14803206 Ry

     convergence has been achieved in   9 iterations

     Forces acting on atoms (cartesian axes, Ry/au):

     atom    1 type  1   force =    -0.00006651   -0.00008692    0.00055190
     atom    2 type  1   force =    -0.00020545   -0.00018841    0.00078271
     atom    3 type  1   force =    -0.00023062   -0.00017326    0.00001887
     atom    4 type  1   force =    -0.00002541   -0.00012555   -0.00003595
     atom    5 type  1   force =     0.00005031    0.00012775    0.00000609
     atom    6 type  1   force =    -0.00030713   -0.00005877    0.00014572
     atom    7 type  1   force =    -0.00025608    0.00004764    0.00051163
     atom    8 type  1   force =    -0.00002202   -0.00019127    0.00036017
     atom    9 type  2   force =    -0.00008026    0.00033847   -0.00000610
     atom   10 type  2   force =    -0.00040234   -0.00015372    0.00003772
     atom   11 type  2   force =    -0.00006090    0.00024151   -0.00109874
     atom   12 type  2   force =     0.00049993    0.00031442    0.00012567
     atom   13 type  2   force =    -0.00059578    0.00016857    0.00038624
     atom   14 type  2   force =    -0.00061340   -0.00010886   -0.00101185
     atom   15 type  2   force =     0.00044570   -0.00036510   -0.00000501
     atom   16 type  2   force =     0.00014742    0.00012667    0.00003572
     atom   17 type  2   force =    -0.00009312   -0.00004596   -0.00000288
     atom   18 type  2   force =     0.00009900   -0.00031153    0.00023592
     atom   19 type  2   force =     0.00002639    0.00012596    0.00027007
     atom   20 type  2   force =     0.00033660    0.00007879   -0.00008469
     atom   21 type  2   force =     0.00024923   -0.00020694    0.00034939
     atom   22 type  2   force =     0.00006367   -0.00022748    0.00014228
     atom   23 type  2   force =     0.00038771    0.00022686    0.00002946
     atom   24 type  2   force =     0.00050485   -0.00044155    0.00019011
     atom   25 type  2   force =     0.00011427   -0.00004039    0.00006061
     atom   26 type  2   force =    -0.00009089   -0.00008451   -0.00028919
     atom   27 type  2   force =     0.00039982    0.00037710    0.00011224
     atom   28 type  2   force =    -0.00057074   -0.00038586    0.00018908
     atom   29 type  2   force =    -0.00054483    0.00013406   -0.00056219
     atom   30 type  2   force =     0.00015701    0.00034562   -0.00006668
     atom   31 type  2   force =    -0.00047316    0.00002076   -0.00009133
     atom   32 type  2   force =    -0.00007100    0.00018337   -0.00059863
     atom   33 type  3   force =    -0.00082647    0.00073999   -0.00002093
     atom   34 type  3   force =     0.00006535   -0.00031460   -0.00006259
     atom   35 type  3   force =    -0.00034897   -0.00041031    0.00012120
     atom   36 type  3   force =    -0.00021740   -0.00052302    0.00053433
     atom   37 type  3   force =    -0.00017602   -0.00050245    0.00018763
     atom   38 type  3   force =    -0.00028210   -0.00029159   -0.00000100
     atom   39 type  3   force =     0.00036536   -0.00017680    0.00007972
     atom   40 type  3   force =    -0.00353193    0.00060598    0.00000022
     atom   41 type  4   force =    -0.00025397   -0.00074547    0.00005412
     atom   42 type  4   force =    -0.00004353   -0.00094416   -0.00001804
     atom   43 type  4   force =    -0.00027083    0.00069371   -0.00003327
     atom   44 type  4   force =     0.00004095    0.00043691   -0.00043671
     atom   45 type  4   force =     0.00028133    0.00037161   -0.00072920
     atom   46 type  4   force =     0.00020066    0.00029248   -0.00010038
     atom   47 type  4   force =     0.00064892    0.00033736   -0.00040738
     atom   48 type  4   force =    -0.00038926    0.00043084   -0.00032385
     atom   49 type  4   force =     0.00229001    0.00022265    0.00002481
     atom   50 type  4   force =     0.00206604   -0.00123255    0.00002339
     atom   51 type  5   force =     0.00080234   -0.00058575   -0.00014232
     atom   52 type  5   force =     0.00034744   -0.00046194    0.00001626
     atom   53 type  5   force =     0.00007602    0.00078935   -0.00003340
     atom   54 type  5   force =     0.00030775    0.00084127   -0.00004927
     atom   55 type  5   force =     0.00013948   -0.00004394    0.00006428
     atom   56 type  5   force =    -0.00023136   -0.00002757   -0.00041191
     atom   57 type  5   force =     0.00084680    0.00009459    0.00005738
     atom   58 type  5   force =    -0.00009541    0.00062454   -0.00016307
     atom   59 type  5   force =     0.00008753   -0.00052295    0.00016668
     atom   60 type  5   force =    -0.00055753   -0.00015144    0.00010978
     atom   61 type  5   force =     0.00043841   -0.00003062    0.00014924
     atom   62 type  5   force =    -0.00000284   -0.00006389    0.00024228
     atom   63 type  5   force =     0.00098313    0.00034008    0.00005624
     atom   64 type  5   force =    -0.00011686    0.00010182   -0.00013507
     atom   65 type  5   force =     0.00008134    0.00007511    0.00055348
     atom   66 type  5   force =    -0.00080530   -0.00002414   -0.00001673
     atom   67 type  5   force =     0.00003595    0.00045383   -0.00043876
     atom   68 type  5   force =     0.00072383   -0.00012543    0.00059515
     atom   69 type  5   force =     0.00021847   -0.00013711    0.00002546
     atom   70 type  5   force =    -0.00018059    0.00084457    0.00006911
     atom   71 type  5   force =    -0.00030414   -0.00010963    0.00020552
     atom   72 type  5   force =    -0.00053453   -0.00011291   -0.00062563
     atom   73 type  5   force =    -0.00001404   -0.00094202    0.00001781
     atom   74 type  5   force =     0.00070197    0.00007058    0.00011180
     atom   75 type  5   force =     0.00045671    0.00001238    0.00006561
     atom   76 type  5   force =    -0.00001953    0.00066457    0.00008889
     atom   77 type  5   force =    -0.00061060   -0.00011605    0.00004638
     atom   78 type  5   force =    -0.00067248   -0.00029321   -0.00020112
     atom   79 type  5   force =     0.00003946   -0.00083517   -0.00005534
     atom   80 type  5   force =     0.00001493    0.00029598    0.00035459
     atom   81 type  5   force =     0.00061188    0.00041946    0.00027089
     atom   82 type  5   force =     0.00005671   -0.00035970    0.00018719
     atom   83 type  5   force =     0.00003145    0.00074253    0.00044730
     atom   84 type  5   force =    -0.00072315   -0.00023403   -0.00059308
     atom   85 type  5   force =    -0.00043535    0.00003885   -0.00041562
     atom   86 type  5   force =    -0.00025750   -0.00010975   -0.00006662
     atom   87 type  5   force =     0.00023819    0.00062284   -0.00018992
     atom   88 type  5   force =     0.00023288    0.00009096   -0.00004510
     atom   89 type  5   force =    -0.00039471    0.00005543   -0.00005846
     atom   90 type  5   force =     0.00001405   -0.00078327    0.00039695
     atom   91 type  5   force =     0.00038830    0.00013019   -0.00001150
     atom   92 type  5   force =     0.00055648   -0.00025842   -0.00005327
     atom   93 type  5   force =     0.00014232   -0.00008862    0.00004722
     atom   94 type  5   force =    -0.00065150    0.00045718   -0.00014412
     atom   95 type  5   force =     0.00021769    0.00032851   -0.00001038
     atom   96 type  5   force =    -0.00057451   -0.00032916   -0.00006522

     Total force =     0.007834     Total SCF correction =     0.000076


     Computing stress (Cartesian axis) and pressure

          total   stress  (Ry/bohr**3)                   (kbar)     P=   -0.13
  -0.00000078   0.00000709  -0.00000007         -0.11      1.04     -0.01
   0.00000709  -0.00000215   0.00000023          1.04     -0.32      0.03
  -0.00000007   0.00000023   0.00000021         -0.01      0.03      0.03


     number of scf cycles    =  24
     number of bfgs steps    =  23

     enthalpy old            =  -16545.2438650304 Ry
     enthalpy new            =  -16545.2439173130 Ry

     CASE: enthalpy_new < enthalpy_old

     new trust radius        =       0.0106704162 bohr
     new conv_thr            =       0.0000000010 Ry

     new unit-cell volume =  13359.30755 a.u.^3 (  1979.64511 Ang^3 )
     density =      4.18720 g/cm^3

CELL_PARAMETERS (angstrom)
  12.380181922   0.000000000   0.000000000
   0.000000000  12.447995924   0.000000000
   0.000000000   0.000000000  12.845791752

ATOMIC_POSITIONS (crystal)
Pb       0.001628525  -0.007377220   0.002845634
Pb       0.002020002  -0.007034771   0.502334632
Pb      -0.001354924   0.495974439   0.000731091
Pb      -0.001423529   0.495808927   0.505389314
Pb       0.498542359  -0.004369765   0.005390023
Pb       0.498641311  -0.004023251   0.500649683
Pb       0.502054744   0.492743748   0.002502429
Pb       0.501598372   0.492749186   0.502940401
I        0.249687270   0.069905202   0.006294658
I       -0.057467625   0.239880219  -0.024916570
I       -0.022639048   0.013918693   0.254105020
I        0.248995311   0.070707154   0.501490966
I       -0.058056390   0.239912228   0.528883615
I        0.006188618  -0.020190766   0.754032096
I        0.249889638   0.444850619   0.018951651
I        0.072788677   0.740216288  -0.013715291
I        0.005058655   0.516973269   0.253085405
I        0.250238006   0.444331049   0.487981211
I        0.072800029   0.740363914   0.518939179
I        0.022502628   0.481529645   0.753056636
I        0.750199731  -0.055895353  -0.011973371
I        0.572739363   0.240721029   0.019131668
I        0.522395182  -0.018542174   0.253115604
I        0.749736526  -0.054979354   0.518859994
I        0.572719256   0.240356422   0.486224319
I        0.505072820   0.016950316   0.753379274
I        0.749152979   0.570528567   0.001332820
I        0.442091775   0.740379561   0.029238084
I        0.506141405   0.479586756   0.253534744
I        0.749537450   0.569912918   0.506399954
I        0.442593460   0.739833903   0.475258866
I        0.477288510   0.514088229   0.753614856
C        0.252319880   0.286975719   0.253486710
C        0.287309232   0.277587753   0.753913959
C        0.237575415   0.793665661   0.252780527
C        0.291977406   0.796871923   0.752022965
C        0.792000666   0.296770194   0.251913603
C        0.737518831   0.293478322   0.752848287
C        0.787344351   0.777616147   0.254125384
C        0.752535532   0.786886631   0.753441109
N        0.152008288   0.252571565   0.253361797
N        0.339383454   0.226653654   0.253295487
N        0.194227805   0.201014178   0.754818377
N        0.259064431   0.675410882   0.252115186
N        0.232989600   0.692066195   0.752469274
N        0.733043061   0.191955614   0.252521672
N        0.758910143   0.175238370   0.752236257
N        0.694619137   0.700709673   0.254570299
N        0.652114264   0.752487945   0.753328765
N        0.839536178   0.726604129   0.753162110
H        0.264633179   0.373620711   0.253831777
H        0.129859051   0.173346503   0.253206938
H        0.091793359   0.308626783   0.253648486
H        0.337891406   0.144780231   0.253003317
H        0.412927054   0.263507825   0.253345155
H        0.195435816   0.152391946   0.688894773
H        0.121174215   0.241178207   0.755938640
H        0.197206864   0.151723304   0.820335389
H        0.281122024   0.328069506   0.684415570
H        0.362285931   0.230940551   0.752436537
H        0.283294527   0.326802564   0.824353292
H        0.302910187   0.654367417   0.186385899
H        0.187754996   0.630823221   0.252457278
H        0.304122304   0.653721230   0.316892902
H        0.191393999   0.813751137   0.182799064
H        0.315226648   0.835764095   0.252853132
H        0.191757146   0.812838117   0.323188680
H        0.183572806   0.685734131   0.687041415
H        0.183897863   0.686110879   0.818113449
H        0.286656120   0.627837105   0.752557319
H        0.342124279   0.800388134   0.681941710
H        0.341903004   0.801144781   0.822242803
H        0.232618870   0.862128120   0.751589992
H        0.683520787   0.185509637   0.187203111
H        0.683982320   0.186026830   0.318200640
H        0.786664098   0.127726039   0.252634319
H        0.842107430   0.300240966   0.181804772
H        0.842064021   0.301161385   0.322017840
H        0.732640098   0.362009969   0.251495879
H        0.802596050   0.153992778   0.686463400
H        0.687629714   0.130636455   0.752831060
H        0.804151818   0.153692155   0.816910134
H        0.691211086   0.313393598   0.682929012
H        0.815178575   0.335582871   0.752795933
H        0.691928922   0.312857412   0.823316661
H        0.696204312   0.652158401   0.188573059
H        0.621462456   0.740550655   0.255497613
H        0.697405182   0.651471688   0.320100789
H        0.781408111   0.828027248   0.184607188
H        0.862459765   0.731308509   0.252853220
H        0.782926067   0.826770260   0.324582249
H        0.764865953   0.873513291   0.753838626
H        0.629915029   0.673292414   0.753046943
H        0.592102978   0.808757352   0.753800983
H        0.838140963   0.644736586   0.752781041
H        0.913133774   0.763440879   0.753453659



     Writing output data file 025FA2_vcrelax12.save/
     NEW-OLD atomic charge density approx. for the potential
     extrapolated charge  408.11551, renormalised to  408.00000

     total cpu time spent up to now is   590772.7 secs

     Self-consistent Calculation

     iteration #  1     ecut=   120.00 Ry     beta= 0.70
     Davidson diagonalization with overlap
     ethr =  1.00E-06,  avg # of iterations =  3.0

     Threshold (ethr) on eigenvalues was too large:
     Diagonalizing with lowered threshold

     Davidson diagonalization with overlap
     ethr =  5.31E-08,  avg # of iterations =  2.2

     total cpu time spent up to now is   597663.3 secs

     total energy              =  -16545.24383955 Ry
     Harris-Foulkes estimate   =  -16545.07176612 Ry
     estimated scf accuracy    <       0.00021436 Ry

     iteration #  2     ecut=   120.00 Ry     beta= 0.70
     Davidson diagonalization with overlap
     ethr =  5.25E-08,  avg # of iterations =  3.0

     total cpu time spent up to now is   601828.0 secs

     total energy              =  -16545.24393619 Ry
     Harris-Foulkes estimate   =  -16545.24402446 Ry
     estimated scf accuracy    <       0.00019015 Ry

     iteration #  3     ecut=   120.00 Ry     beta= 0.70
     Davidson diagonalization with overlap
