
     Program PWSCF v.6.4 starts on 11Aug2020 at 18:18:28 

     This program is part of the open-source Quantum ESPRESSO suite
     for quantum simulation of materials; please cite
         "P. Giannozzi et al., J. Phys.:Condens. Matter 21 395502 (2009);
         "P. Giannozzi et al., J. Phys.:Condens. Matter 29 465901 (2017);
          URL http://www.quantum-espresso.org", 
     in publications or presentations arising from this work. More details at
     http://www.quantum-espresso.org/quote

     Parallel version (MPI), running on    32 processors

     MPI processes distributed on     1 nodes
     R & G space division:  proc/nbgrp/npool/nimage =      32
     Waiting for input...
     Reading input from standard input

     Current dimensions of program PWSCF are:
     Max number of different atomic species (ntypx) = 10
     Max number of k-points (npk) =  40000
     Max angular momentum in pseudopotentials (lmaxx) =  3
               file Pb.pbe-dn-kjpaw_psl.1.0.0.UPF: wavefunction(s)  6S 6P 5D renormalized
               file I.pbe-n-kjpaw_psl.1.0.0.UPF: wavefunction(s)  5S renormalized
               file C.pbe-n-kjpaw_psl.1.0.0.UPF: wavefunction(s)  2S 2P renormalized
               file N.pbe-n-kjpaw_psl.1.0.0.UPF: wavefunction(s)  2S renormalized
               file H.pbe-kjpaw_psl.1.0.0.UPF: wavefunction(s)  1S renormalized

     --------------------------------------------
     Parameters for DFT-D3 Dispersion Correction:
     --------------------------------------------
       Reference C6 values for interpolation: 

         atom   Coordination number   C6
         H          0.912             6.05
         H          0.000            15.18
         C          0.000            98.23
         C          0.987            86.49
         C          1.998            58.72
         C          2.999            51.56
         C          3.984            36.41
         N          0.000            50.54
         N          0.994            44.25
         N          2.014            39.35
         N          2.990            31.16
         I          0.000           703.93
         I          0.997           717.00
         Pb         0.000          1477.63
         Pb         0.938          1266.00
         Pb         1.936          1088.91
         Pb         2.908          1048.37
         Pb         3.910           910.57

       Values used:

         atom   Coordination number  R0_AB[au]  C6      C8
         Pb         4.816            4.041    910.57 144158.38
         Pb         4.820            4.041    910.57 144158.37
         Pb         4.795            4.041    910.57 144158.43
         Pb         4.799            4.041    910.57 144158.42
         Pb         4.805            4.041    910.57 144158.40
         Pb         4.791            4.041    910.57 144158.44
         Pb         4.821            4.041    910.57 144158.37
         Pb         4.820            4.041    910.57 144158.37
         I          1.917            3.532    717.00  65855.99
         I          1.938            3.532    717.00  65855.99
         I          1.889            3.532    717.00  65855.99
         I          1.913            3.532    717.00  65855.99
         I          1.942            3.532    717.00  65855.99
         I          2.021            3.532    717.00  65856.00
         I          2.043            3.532    717.00  65856.00
         I          1.971            3.532    717.00  65856.00
         I          1.908            3.532    717.00  65855.99
         I          2.045            3.532    717.00  65856.00
         I          1.964            3.532    717.00  65856.00
         I          2.001            3.532    717.00  65856.00
         I          2.044            3.532    717.00  65856.00
         I          1.965            3.532    717.00  65856.00
         I          2.003            3.532    717.00  65856.00
         I          2.044            3.532    717.00  65856.00
         I          1.970            3.532    717.00  65856.00
         I          1.908            3.532    717.00  65855.99
         I          1.915            3.532    717.00  65855.99
         I          1.943            3.532    717.00  65855.99
         I          2.022            3.532    717.00  65856.00
         I          1.917            3.532    717.00  65855.99
         I          1.939            3.532    717.00  65855.99
         I          1.888            3.532    717.00  65855.99
         C          3.105            2.750     50.85   1470.76
         C          4.041            2.750     36.59   1058.13
         C          4.040            2.750     36.59   1058.19
         C          4.040            2.750     36.59   1058.18
         C          4.040            2.750     36.59   1058.18
         C          4.040            2.750     36.59   1058.20
         C          4.041            2.750     36.59   1058.13
         C          3.105            2.750     50.85   1470.79
         N          3.099            2.478     31.24    689.08
         N          3.100            2.478     31.23    689.06
         N          4.054            2.478     31.16    687.49
         N          4.052            2.478     31.16    687.49
         N          4.058            2.478     31.16    687.49
         N          4.057            2.478     31.16    687.49
         N          4.052            2.478     31.16    687.49
         N          4.054            2.478     31.16    687.49
         N          3.098            2.478     31.24    689.08
         N          3.100            2.478     31.23    689.06
         H          1.028            2.062      6.16     74.44
         H          1.048            2.062      6.14     74.27
         H          1.041            2.062      6.15     74.32
         H          1.024            2.062      6.16     74.48
         H          1.032            2.062      6.15     74.40
         H          1.057            2.062      6.14     74.20
         H          1.017            2.062      6.17     74.54
         H          1.061            2.062      6.14     74.17
         H          1.021            2.062      6.16     74.50
         H          1.009            2.062      6.17     74.62
         H          1.022            2.062      6.16     74.50
         H          1.035            2.062      6.15     74.38
         H          1.059            2.062      6.14     74.18
         H          1.034            2.062      6.15     74.38
         H          1.014            2.062      6.17     74.57
         H          1.013            2.062      6.17     74.58
         H          1.014            2.062      6.17     74.57
         H          1.068            2.062      6.13     74.12
         H          1.068            2.062      6.13     74.12
         H          1.043            2.062      6.15     74.30
         H          1.016            2.062      6.17     74.55
         H          1.016            2.062      6.17     74.55
         H          1.010            2.062      6.17     74.61
         H          1.068            2.062      6.13     74.12
         H          1.068            2.062      6.13     74.12
         H          1.043            2.062      6.15     74.31
         H          1.016            2.062      6.17     74.55
         H          1.016            2.062      6.17     74.55
         H          1.010            2.062      6.17     74.61
         H          1.034            2.062      6.15     74.38
         H          1.060            2.062      6.14     74.18
         H          1.034            2.062      6.15     74.38
         H          1.014            2.062      6.17     74.57
         H          1.013            2.062      6.17     74.58
         H          1.014            2.062      6.17     74.57
         H          1.058            2.062      6.14     74.19
         H          1.017            2.062      6.17     74.54
         H          1.061            2.062      6.14     74.17
         H          1.021            2.062      6.16     74.50
         H          1.009            2.062      6.17     74.62
         H          1.022            2.062      6.16     74.50
         H          1.028            2.062      6.16     74.44
         H          1.048            2.062      6.14     74.26
         H          1.041            2.062      6.15     74.32
         H          1.024            2.062      6.16     74.48
         H          1.032            2.062      6.15     74.40

         Molecular C6 ( Ry / a.u.^6 ) =   1214709.63


     Subspace diagonalization in iterative solution of the eigenvalue problem:
     a serial algorithm will be used


     Parallelization info
     --------------------
     sticks:   dense  smooth     PW     G-vecs:    dense   smooth      PW
     Min         656     656    169                74125    74125    9707
     Max         657     657    170                74129    74129    9712
     Sum       21023   21023   5417              2372055  2372055  310685



     bravais-lattice index     =            0
     lattice parameter (alat)  =      23.3933  a.u.
     unit-cell volume          =   13356.5002 (a.u.)^3
     number of atoms/cell      =           96
     number of atomic types    =            5
     number of electrons       =       408.00
     number of Kohn-Sham states=          204
     kinetic-energy cutoff     =     120.0000  Ry
     charge density cutoff     =     480.0000  Ry
     convergence threshold     =      1.0E-07
     mixing beta               =       0.7000
     number of iterations used =            8  plain     mixing
     Exchange-correlation      = SLA PW PBX PBC ( 1  4  3  4 0 0)
     nstep                     =          150


     celldm(1)=  23.393273  celldm(2)=   0.000000  celldm(3)=   0.000000
     celldm(4)=   0.000000  celldm(5)=   0.000000  celldm(6)=   0.000000

     crystal axes: (cart. coord. in units of alat)
               a(1) = (   1.000000   0.000000   0.000000 )  
               a(2) = (   0.000000   1.005431   0.000000 )  
               a(3) = (   0.000000   0.000000   1.037690 )  

     reciprocal axes: (cart. coord. in units 2 pi/alat)
               b(1) = (  1.000000  0.000000  0.000000 )  
               b(2) = (  0.000000  0.994599  0.000000 )  
               b(3) = (  0.000000  0.000000  0.963679 )  


     PseudoPot. # 1 for Pb read from file:
     ../../../../Pseudopotential/Pb.pbe-dn-kjpaw_psl.1.0.0.UPF
     MD5 check sum: 684fc8fbce61a260853528575e4d9ab7
     Pseudo is Projector augmented-wave + core cor, Zval = 14.0
     Generated using "atomic" code by A. Dal Corso v.6.3
     Shape of augmentation charge: PSQ
     Using radial grid of 1281 points,  6 beta functions with: 
                l(1) =   0
                l(2) =   0
                l(3) =   1
                l(4) =   1
                l(5) =   2
                l(6) =   2
     Q(r) pseudized with 0 coefficients 


     PseudoPot. # 2 for I  read from file:
     ../../../../Pseudopotential/I.pbe-n-kjpaw_psl.1.0.0.UPF
     MD5 check sum: cd3d296c3308a581e1559a0c8a554cb5
     Pseudo is Projector augmented-wave + core cor, Zval =  7.0
     Generated using "atomic" code by A. Dal Corso v.6.3
     Shape of augmentation charge: PSQ
     Using radial grid of 1247 points,  6 beta functions with: 
                l(1) =   0
                l(2) =   0
                l(3) =   1
                l(4) =   1
                l(5) =   2
                l(6) =   2
     Q(r) pseudized with 0 coefficients 


     PseudoPot. # 3 for C  read from file:
     ../../../../Pseudopotential/C.pbe-n-kjpaw_psl.1.0.0.UPF
     MD5 check sum: 5f16ad9a65e90284d1d834d4ab3b0f7d
     Pseudo is Projector augmented-wave + core cor, Zval =  4.0
     Generated using "atomic" code by A. Dal Corso v.6.3
     Shape of augmentation charge: PSQ
     Using radial grid of 1073 points,  4 beta functions with: 
                l(1) =   0
                l(2) =   0
                l(3) =   1
                l(4) =   1
     Q(r) pseudized with 0 coefficients 


     PseudoPot. # 4 for N  read from file:
     ../../../../Pseudopotential/N.pbe-n-kjpaw_psl.1.0.0.UPF
     MD5 check sum: 14c48229446f9f2d411169a3abcbc3fa
     Pseudo is Projector augmented-wave + core cor, Zval =  5.0
     Generated using "atomic" code by A. Dal Corso v.6.3
     Shape of augmentation charge: PSQ
     Using radial grid of 1085 points,  4 beta functions with: 
                l(1) =   0
                l(2) =   0
                l(3) =   1
                l(4) =   1
     Q(r) pseudized with 0 coefficients 


     PseudoPot. # 5 for H  read from file:
     ../../../../Pseudopotential/H.pbe-kjpaw_psl.1.0.0.UPF
     MD5 check sum: d81a744832360e4a8af0b0b5b123bc2a
     Pseudo is Projector augmented-wave, Zval =  1.0
     Generated using "atomic" code by A. Dal Corso v.6.3MaX
     Shape of augmentation charge: PSQ
     Using radial grid of  929 points,  2 beta functions with: 
                l(1) =   0
                l(2) =   0
     Q(r) pseudized with 0 coefficients 


     atomic species   valence    mass     pseudopotential
        Pb            14.00   207.97600     Pb( 1.00)
        I              7.00   126.90400     I ( 1.00)
        C              4.00    12.00000     C ( 1.00)
        N              5.00    14.00300     N ( 1.00)
        H              1.00     1.00700     H ( 1.00)

     No symmetry found



   Cartesian axes

     site n.     atom                  positions (alat units)
         1           Pb  tau(   1) = (   0.0016179  -0.0074244   0.0030062  )
         2           Pb  tau(   2) = (   0.0019959  -0.0070894   0.5213556  )
         3           Pb  tau(   3) = (  -0.0013812   0.4986527   0.0007530  )
         4           Pb  tau(   4) = (  -0.0014226   0.4984908   0.5244420  )
         5           Pb  tau(   5) = (   0.4985490  -0.0043810   0.0056045  )
         6           Pb  tau(   6) = (   0.4986098  -0.0040496   0.5195236  )
         7           Pb  tau(   7) = (   0.5020257   0.4954285   0.0026540  )
         8           Pb  tau(   8) = (   0.5015915   0.4954083   0.5219291  )
         9           I   tau(   9) = (   0.2496763   0.0703214   0.0065317  )
        10           I   tau(  10) = (  -0.0575103   0.2411595  -0.0258460  )
        11           I   tau(  11) = (  -0.0226450   0.0140176   0.2635706  )
        12           I   tau(  12) = (   0.2490450   0.0711247   0.5204048  )
        13           I   tau(  13) = (  -0.0581187   0.2412285   0.5488519  )
        14           I   tau(  14) = (   0.0061285  -0.0203105   0.7823451  )
        15           I   tau(  15) = (   0.2499391   0.4472234   0.0196648  )
        16           I   tau(  16) = (   0.0728071   0.7442508  -0.0142281  )
        17           I   tau(  17) = (   0.0050496   0.5197737   0.2626289  )
        18           I   tau(  18) = (   0.2502464   0.4467082   0.5063981  )
        19           I   tau(  19) = (   0.0728037   0.7443981   0.5385210  )
        20           I   tau(  20) = (   0.0225365   0.4841531   0.7814266  )
        21           I   tau(  21) = (   0.7502279  -0.0562238  -0.0123887  )
        22           I   tau(  22) = (   0.5727476   0.2420067   0.0198639  )
        23           I   tau(  23) = (   0.5224336  -0.0186185   0.2626614  )
        24           I   tau(  24) = (   0.7497922  -0.0553281   0.5384341  )
        25           I   tau(  25) = (   0.5727332   0.2416564   0.5045569  )
        26           I   tau(  26) = (   0.5050648   0.0170310   0.7817429  )
        27           I   tau(  27) = (   0.7491919   0.5736664   0.0013944  )
        28           I   tau(  28) = (   0.4420324   0.7443549   0.0303529  )
        29           I   tau(  29) = (   0.5060884   0.4822043   0.2630327  )
        30           I   tau(  30) = (   0.7495547   0.5730453   0.5254789  )
        31           I   tau(  31) = (   0.4425430   0.7438507   0.4931678  )
        32           I   tau(  32) = (   0.4772826   0.5168995   0.7819561  )
        33           C   tau(  33) = (   0.2522898   0.2885686   0.2630388  )
        34           C   tau(  34) = (   0.2873028   0.2790752   0.7823395  )
        35           C   tau(  35) = (   0.2375292   0.7979324   0.2623089  )
        36           C   tau(  36) = (   0.2919549   0.8011415   0.7803859  )
        37           C   tau(  37) = (   0.7919886   0.2983249   0.2614180  )
        38           C   tau(  38) = (   0.7374871   0.2950458   0.7812019  )
        39           C   tau(  39) = (   0.7873736   0.7818316   0.2637064  )
        40           C   tau(  40) = (   0.7524596   0.7911855   0.7818394  )
        41           N   tau(  41) = (   0.1519737   0.2539021   0.2629167  )
        42           N   tau(  42) = (   0.3393543   0.2278556   0.2628400  )
        43           N   tau(  43) = (   0.1942267   0.2021519   0.7832398  )
        44           N   tau(  44) = (   0.2590806   0.6791354   0.2616002  )
        45           N   tau(  45) = (   0.2330235   0.6958678   0.7808121  )
        46           N   tau(  46) = (   0.7330548   0.1930399   0.2620430  )
        47           N   tau(  47) = (   0.7589713   0.1762310   0.7805857  )
        48           N   tau(  48) = (   0.6945917   0.7045394   0.2641449  )
        49           N   tau(  49) = (   0.6521542   0.7565956   0.7817240  )
        50           N   tau(  50) = (   0.8395655   0.7305019   0.7815513  )
        51           H   tau(  51) = (   0.2647224   0.3756365   0.2633850  )
        52           H   tau(  52) = (   0.1298828   0.1742410   0.2627523  )
        53           H   tau(  53) = (   0.0918014   0.3103504   0.2632036  )
        54           H   tau(  54) = (   0.3379366   0.1455887   0.2625340  )
        55           H   tau(  55) = (   0.4129110   0.2649315   0.2628993  )
        56           H   tau(  56) = (   0.1954113   0.1532142   0.7148246  )
        57           H   tau(  57) = (   0.1212542   0.2425057   0.7844482  )
        58           H   tau(  58) = (   0.1971856   0.1526152   0.8512349  )
        59           H   tau(  59) = (   0.2811376   0.3297948   0.7102321  )
        60           H   tau(  60) = (   0.3622250   0.2321769   0.7807950  )
        61           H   tau(  61) = (   0.2833378   0.3285836   0.8554360  )
        62           H   tau(  62) = (   0.3029146   0.6579052   0.1934241  )
        63           H   tau(  63) = (   0.1878651   0.6342813   0.2619813  )
        64           H   tau(  64) = (   0.3040901   0.6572772   0.3288046  )
        65           H   tau(  65) = (   0.1914169   0.8181790   0.1897461  )
        66           H   tau(  66) = (   0.3151372   0.8402999   0.2623772  )
        67           H   tau(  67) = (   0.1917626   0.8173007   0.3353386  )
        68           H   tau(  68) = (   0.1836418   0.6894405   0.7129774  )
        69           H   tau(  69) = (   0.1839374   0.6898195   0.8489286  )
        70           H   tau(  70) = (   0.2866231   0.6313353   0.7809241  )
        71           H   tau(  71) = (   0.3420792   0.8047280   0.7076764  )
        72           H   tau(  72) = (   0.3418451   0.8054852   0.8531813  )
        73           H   tau(  73) = (   0.2326321   0.8667142   0.7799216  )
        74           H   tau(  74) = (   0.6835897   0.1865160   0.1942720  )
        75           H   tau(  75) = (   0.6840311   0.1870347   0.3301873  )
        76           H   tau(  76) = (   0.7866591   0.1284912   0.2621619  )
        77           H   tau(  77) = (   0.8420474   0.3018601   0.1886687  )
        78           H   tau(  78) = (   0.8419975   0.3027732   0.3341315  )
        79           H   tau(  79) = (   0.7326462   0.3638871   0.2609741  )
        80           H   tau(  80) = (   0.8025950   0.1548377   0.7123434  )
        81           H   tau(  81) = (   0.6877149   0.1313830   0.7812177  )
        82           H   tau(  82) = (   0.8041400   0.1544974   0.8477086  )
        83           H   tau(  83) = (   0.6912182   0.3151557   0.7087042  )
        84           H   tau(  84) = (   0.8150930   0.3373857   0.7811300  )
        85           H   tau(  85) = (   0.6919016   0.3145775   0.8543290  )
        86           H   tau(  86) = (   0.6961923   0.6556913   0.1956698  )
        87           H   tau(  87) = (   0.6214589   0.7446462   0.2651205  )
        88           H   tau(  88) = (   0.6974163   0.6550233   0.3321574  )
        89           H   tau(  89) = (   0.7813861   0.8325215   0.1915568  )
        90           H   tau(  90) = (   0.8624752   0.7352045   0.2624052  )
        91           H   tau(  91) = (   0.7829521   0.8312710   0.3368227  )
        92           H   tau(  92) = (   0.7649359   0.8782540   0.7822474  )
        93           H   tau(  93) = (   0.6299359   0.6769394   0.7814350  )
        94           H   tau(  94) = (   0.5920814   0.8131472   0.7821944  )
        95           H   tau(  95) = (   0.8381726   0.6482336   0.7811528  )
        96           H   tau(  96) = (   0.9130906   0.7675854   0.7818428  )

     number of k points=    32
                       cart. coord. in units 2pi/alat
        k(    1) = (   0.1250000   0.1243248   0.1204599), wk =   0.0625000
        k(    2) = (   0.1250000   0.1243248   0.3613796), wk =   0.0625000
        k(    3) = (   0.1250000   0.3729745   0.1204599), wk =   0.0625000
        k(    4) = (   0.1250000   0.3729745   0.3613796), wk =   0.0625000
        k(    5) = (   0.3750000   0.1243248   0.1204599), wk =   0.0625000
        k(    6) = (   0.3750000   0.1243248   0.3613796), wk =   0.0625000
        k(    7) = (   0.3750000   0.3729745   0.1204599), wk =   0.0625000
        k(    8) = (   0.3750000   0.3729745   0.3613796), wk =   0.0625000
        k(    9) = (  -0.1250000  -0.1243248   0.1204599), wk =   0.0625000
        k(   10) = (  -0.1250000   0.1243248  -0.1204599), wk =   0.0625000
        k(   11) = (   0.1250000  -0.1243248  -0.1204599), wk =   0.0625000
        k(   12) = (  -0.1250000  -0.1243248   0.3613796), wk =   0.0625000
        k(   13) = (  -0.1250000   0.1243248  -0.3613796), wk =   0.0625000
        k(   14) = (   0.1250000  -0.1243248  -0.3613796), wk =   0.0625000
        k(   15) = (  -0.1250000  -0.3729745   0.1204599), wk =   0.0625000
        k(   16) = (  -0.1250000   0.3729745  -0.1204599), wk =   0.0625000
        k(   17) = (   0.1250000  -0.3729745  -0.1204599), wk =   0.0625000
        k(   18) = (  -0.1250000  -0.3729745   0.3613796), wk =   0.0625000
        k(   19) = (  -0.1250000   0.3729745  -0.3613796), wk =   0.0625000
        k(   20) = (   0.1250000  -0.3729745  -0.3613796), wk =   0.0625000
        k(   21) = (  -0.3750000  -0.1243248   0.1204599), wk =   0.0625000
        k(   22) = (  -0.3750000   0.1243248  -0.1204599), wk =   0.0625000
        k(   23) = (   0.3750000  -0.1243248  -0.1204599), wk =   0.0625000
        k(   24) = (  -0.3750000  -0.1243248   0.3613796), wk =   0.0625000
        k(   25) = (  -0.3750000   0.1243248  -0.3613796), wk =   0.0625000
        k(   26) = (   0.3750000  -0.1243248  -0.3613796), wk =   0.0625000
        k(   27) = (  -0.3750000  -0.3729745   0.1204599), wk =   0.0625000
        k(   28) = (  -0.3750000   0.3729745  -0.1204599), wk =   0.0625000
        k(   29) = (   0.3750000  -0.3729745  -0.1204599), wk =   0.0625000
        k(   30) = (  -0.3750000  -0.3729745   0.3613796), wk =   0.0625000
        k(   31) = (  -0.3750000   0.3729745  -0.3613796), wk =   0.0625000
        k(   32) = (   0.3750000  -0.3729745  -0.3613796), wk =   0.0625000

     Dense  grid:  2372055 G-vectors     FFT dimensions: ( 180, 180, 180)

     Estimated max dynamical RAM per process >       1.68 GB

     Estimated total dynamical RAM >      53.75 GB

     Initial potential from superposition of free atoms

     starting charge  407.97850, renormalised to  408.00000
     Starting wfcs are  286 randomized atomic wfcs
     Checking if some PAW data can be deallocated... 

     total cpu time spent up to now is     1028.6 secs

     Self-consistent Calculation

     iteration #  1     ecut=   120.00 Ry     beta= 0.70
     Davidson diagonalization with overlap
     ethr =  1.00E-02,  avg # of iterations =  2.0

     total cpu time spent up to now is     2983.6 secs

     total energy              =  -16543.27854979 Ry
     Harris-Foulkes estimate   =  -16546.92497329 Ry
     estimated scf accuracy    <       6.00688228 Ry

     iteration #  2     ecut=   120.00 Ry     beta= 0.70
     Davidson diagonalization with overlap
     ethr =  1.47E-03,  avg # of iterations =  3.1

     total cpu time spent up to now is     5471.3 secs

     total energy              =  -16544.58194837 Ry
     Harris-Foulkes estimate   =  -16546.06626422 Ry
     estimated scf accuracy    <       2.67131038 Ry

     iteration #  3     ecut=   120.00 Ry     beta= 0.70
     Davidson diagonalization with overlap
     ethr =  6.55E-04,  avg # of iterations =  4.0

     total cpu time spent up to now is     7664.5 secs

     total energy              =  -16545.20550048 Ry
     Harris-Foulkes estimate   =  -16545.25889488 Ry
     estimated scf accuracy    <       0.12065667 Ry

     iteration #  4     ecut=   120.00 Ry     beta= 0.70
     Davidson diagonalization with overlap
     ethr =  2.96E-05,  avg # of iterations =  4.0

     total cpu time spent up to now is    10245.0 secs

     total energy              =  -16545.23684209 Ry
     Harris-Foulkes estimate   =  -16545.25306143 Ry
     estimated scf accuracy    <       0.03088480 Ry

     iteration #  5     ecut=   120.00 Ry     beta= 0.70
     Davidson diagonalization with overlap
     ethr =  7.57E-06,  avg # of iterations =  4.0

     total cpu time spent up to now is    12534.2 secs

     total energy              =  -16545.24318509 Ry
     Harris-Foulkes estimate   =  -16545.24451035 Ry
     estimated scf accuracy    <       0.00254431 Ry

     iteration #  6     ecut=   120.00 Ry     beta= 0.70
     Davidson diagonalization with overlap
     ethr =  6.24E-07,  avg # of iterations =  4.0

     total cpu time spent up to now is    15152.4 secs

     total energy              =  -16545.24391126 Ry
     Harris-Foulkes estimate   =  -16545.24416680 Ry
     estimated scf accuracy    <       0.00057406 Ry

     iteration #  7     ecut=   120.00 Ry     beta= 0.70
     Davidson diagonalization with overlap
     ethr =  1.41E-07,  avg # of iterations =  3.0

     total cpu time spent up to now is    17414.3 secs

     total energy              =  -16545.24403448 Ry
     Harris-Foulkes estimate   =  -16545.24405318 Ry
     estimated scf accuracy    <       0.00004362 Ry

     iteration #  8     ecut=   120.00 Ry     beta= 0.70
     Davidson diagonalization with overlap
     ethr =  1.07E-08,  avg # of iterations =  4.0

     total cpu time spent up to now is    19947.4 secs

     total energy              =  -16545.24404733 Ry
     Harris-Foulkes estimate   =  -16545.24405488 Ry
     estimated scf accuracy    <       0.00001704 Ry

     iteration #  9     ecut=   120.00 Ry     beta= 0.70
     Davidson diagonalization with overlap
     ethr =  4.18E-09,  avg # of iterations =  3.0

     total cpu time spent up to now is    22024.9 secs

     total energy              =  -16545.24405091 Ry
     Harris-Foulkes estimate   =  -16545.24405137 Ry
     estimated scf accuracy    <       0.00000096 Ry

     iteration # 10     ecut=   120.00 Ry     beta= 0.70
     Davidson diagonalization with overlap
     ethr =  2.36E-10,  avg # of iterations =  3.1

     total cpu time spent up to now is    24445.6 secs

     total energy              =  -16545.24405118 Ry
     Harris-Foulkes estimate   =  -16545.24405129 Ry
     estimated scf accuracy    <       0.00000022 Ry

     iteration # 11     ecut=   120.00 Ry     beta= 0.70
     Davidson diagonalization with overlap
     ethr =  5.48E-11,  avg # of iterations =  3.0

     total cpu time spent up to now is    26649.0 secs

     End of self-consistent calculation

          k = 0.1250 0.1243 0.1205 (296441 PWs)   bands (ev):

   -17.7322 -17.7317 -17.3694 -17.3677 -17.3571 -17.3568 -17.2877 -17.2873
   -15.5907 -15.5881 -14.0960 -14.0954 -14.0870 -14.0859 -14.0823 -14.0805
   -14.0758 -14.0742 -14.0737 -14.0714 -14.0697 -14.0675 -14.0566 -14.0555
   -14.0554 -14.0548 -14.0540 -14.0536 -14.0523 -14.0508 -14.0494 -14.0493
   -14.0478 -14.0460 -14.0390 -14.0379 -14.0367 -14.0365 -14.0352 -14.0348
   -14.0348 -14.0345 -14.0334 -14.0332 -14.0327 -14.0309 -14.0193 -14.0180
   -14.0170 -14.0166 -10.3172 -10.3147 -10.2992 -10.2983 -10.2824 -10.2810
    -9.5922  -9.5855  -9.4852  -9.3753  -9.3403  -9.2944  -9.2566  -9.1985
    -9.1820  -9.1655  -9.1314  -9.0871  -9.0526  -8.9969  -8.9913  -8.9743
    -8.9736  -8.9592  -8.9542  -8.9414  -8.9058  -8.8581  -8.8278  -8.7987
    -8.7822  -8.7593  -7.5780  -7.5747  -6.9984  -6.9973  -6.8134  -6.8084
    -6.8075  -6.8069  -6.8032  -6.7954  -6.7706  -6.7678  -6.7673  -6.7642
    -6.6971  -6.6952  -5.6922  -5.2835  -5.2643  -5.2482  -5.2419  -5.2324
    -4.8634  -4.8490  -4.8207  -4.6613  -4.6489  -4.6446  -4.6356  -4.6293
    -4.6251  -4.4152  -3.6975  -3.6947  -3.1528  -3.1506  -2.6624  -2.6434
    -2.6402  -2.6292  -2.6140  -2.6131  -2.6028  -2.5999  -2.5737  -2.5711
    -2.5643  -2.5590  -0.7361  -0.6953  -0.6428  -0.6337  -0.6104  -0.5410
    -0.5389  -0.4783  -0.4355  -0.3802  -0.3736  -0.2962   0.0258   0.1318
     0.3846   0.4438   0.4714   0.4742   0.5256   0.5458   0.5633   0.6462
     0.6812   0.6821   0.7396   0.7600   0.8120   0.8885   0.8905   0.9089
     0.9458   0.9871   1.0230   1.0538   1.0679   1.1044   1.1129   1.1355
     1.1485   1.1673   1.1800   1.2026   1.2048   1.2287   1.2451   1.2602
     1.2989   1.3127   1.3233   1.3838   1.3847   1.4489   1.4738   1.4752
     1.4825   1.4875   1.5438   1.5512   1.5540   1.5661   1.6016   1.6109
     1.6692   1.7003   1.7361   1.7882   1.8038   1.8352   1.8470   1.8863
     1.9093   1.9803   2.0642   2.2365

          k = 0.1250 0.1243 0.3614 (296498 PWs)   bands (ev):

   -17.7322 -17.7317 -17.3694 -17.3677 -17.3571 -17.3568 -17.2877 -17.2873
   -15.5907 -15.5881 -14.0936 -14.0932 -14.0895 -14.0881 -14.0801 -14.0780
   -14.0771 -14.0742 -14.0740 -14.0738 -14.0694 -14.0684 -14.0566 -14.0555
   -14.0554 -14.0548 -14.0540 -14.0536 -14.0523 -14.0509 -14.0494 -14.0493
   -14.0478 -14.0460 -14.0390 -14.0379 -14.0368 -14.0365 -14.0352 -14.0348
   -14.0348 -14.0345 -14.0334 -14.0332 -14.0327 -14.0309 -14.0193 -14.0180
   -14.0170 -14.0166 -10.3165 -10.3152 -10.2991 -10.2982 -10.2821 -10.2814
    -9.5851  -9.5830  -9.4614  -9.4054  -9.3412  -9.2839  -9.2824  -9.2498
    -9.2073  -9.1974  -9.0526  -9.0371  -9.0178  -9.0085  -8.9865  -8.9788
    -8.9778  -8.9681  -8.9328  -8.9310  -8.8866  -8.8680  -8.8580  -8.8284
    -8.7752  -8.7661  -7.5774  -7.5758  -6.9984  -6.9974  -6.8123  -6.8088
    -6.8057  -6.8043  -6.8016  -6.7959  -6.7713  -6.7695  -6.7667  -6.7636
    -6.6988  -6.6976  -5.5756  -5.3975  -5.2489  -5.2467  -5.1703  -5.1267
    -4.9992  -4.9561  -4.7573  -4.6680  -4.6569  -4.6501  -4.6293  -4.6284
    -4.6200  -4.5379  -3.6978  -3.6951  -3.1524  -3.1511  -2.6493  -2.6429
    -2.6388  -2.6283  -2.6231  -2.6183  -2.5994  -2.5976  -2.5735  -2.5715
    -2.5635  -2.5606  -0.6119  -0.5817  -0.5778  -0.5288  -0.4543  -0.4093
    -0.4021  -0.3930  -0.2721  -0.2597  -0.2284  -0.1452   0.0344   0.1060
     0.2796   0.3115   0.3877   0.4165   0.4588   0.4941   0.5133   0.5547
     0.5691   0.5784   0.5977   0.6327   0.6542   0.6827   0.8255   0.8694
     0.8772   0.9144   0.9485   0.9817   1.0355   1.0466   1.0864   1.0939
     1.1211   1.1345   1.1545   1.1700   1.2554   1.2665   1.2966   1.3127
     1.3322   1.3489   1.3715   1.3743   1.4241   1.4393   1.4656   1.4866
     1.5121   1.5219   1.5240   1.5289   1.5709   1.5727   1.6019   1.6288
     1.6598   1.7007   1.7208   1.7459   1.7566   1.8038   1.8055   1.8270
     1.8551   1.8657   2.0727   2.1098

          k = 0.1250 0.3730 0.1205 (296520 PWs)   bands (ev):

   -17.7322 -17.7317 -17.3694 -17.3677 -17.3571 -17.3568 -17.2877 -17.2873
   -15.5907 -15.5881 -14.0959 -14.0952 -14.0868 -14.0857 -14.0817 -14.0808
   -14.0748 -14.0739 -14.0726 -14.0713 -14.0702 -14.0687 -14.0565 -14.0557
   -14.0555 -14.0548 -14.0545 -14.0539 -14.0527 -14.0509 -14.0495 -14.0494
   -14.0479 -14.0460 -14.0390 -14.0379 -14.0367 -14.0365 -14.0352 -14.0348
   -14.0348 -14.0345 -14.0334 -14.0332 -14.0327 -14.0309 -14.0193 -14.0180
   -14.0170 -14.0166 -10.3153 -10.3139 -10.2993 -10.2983 -10.2832 -10.2828
    -9.5925  -9.5885  -9.4448  -9.3875  -9.3477  -9.2861  -9.2690  -9.2159
    -9.1954  -9.1870  -9.1297  -9.1235  -9.0397  -9.0204  -8.9668  -8.9624
    -8.9584  -8.9472  -8.9378  -8.9232  -8.8746  -8.8535  -8.8513  -8.8080
    -8.7866  -8.7721  -7.5767  -7.5756  -6.9983  -6.9973  -6.8115  -6.8085
    -6.8075  -6.8069  -6.8019  -6.7972  -6.7713  -6.7688  -6.7678  -6.7643
    -6.6971  -6.6956  -5.5796  -5.4102  -5.2496  -5.2474  -5.1520  -5.1335
    -4.9896  -4.9741  -4.7394  -4.6697  -4.6533  -4.6451  -4.6351  -4.6311
    -4.6122  -4.5235  -3.6982  -3.6954  -3.1524  -3.1511  -2.6547  -2.6471
    -2.6299  -2.6231  -2.6145  -2.6128  -2.6077  -2.6059  -2.5748  -2.5723
    -2.5645  -2.5622  -0.7097  -0.6741  -0.6448  -0.6005  -0.5677  -0.5269
    -0.4960  -0.4248  -0.2827  -0.1191  -0.0751   0.0028   0.1076   0.1107
     0.1774   0.3573   0.3922   0.4573   0.4799   0.4943   0.5480   0.5637
     0.5925   0.6118   0.6441   0.7010   0.7474   0.8024   0.8377   0.8835
     0.8927   0.9221   1.0138   1.0175   1.0564   1.0605   1.0918   1.0998
     1.1288   1.1321   1.1726   1.1866   1.2067   1.2073   1.2459   1.2544
     1.2943   1.2995   1.3142   1.3429   1.3863   1.3885   1.4537   1.4649
     1.4805   1.5169   1.5375   1.5448   1.5808   1.6234   1.6319   1.6335
     1.6515   1.6984   1.7064   1.7540   1.7992   1.8283   1.8522   1.8771
     1.9121   1.9156   2.0112   2.0829

          k = 0.1250 0.3730 0.3614 (296508 PWs)   bands (ev):

   -17.7322 -17.7317 -17.3694 -17.3677 -17.3571 -17.3568 -17.2877 -17.2873
   -15.5907 -15.5881 -14.0934 -14.0930 -14.0893 -14.0879 -14.0794 -14.0784
   -14.0762 -14.0749 -14.0728 -14.0726 -14.0704 -14.0694 -14.0565 -14.0557
   -14.0555 -14.0548 -14.0545 -14.0539 -14.0527 -14.0509 -14.0495 -14.0494
   -14.0479 -14.0460 -14.0390 -14.0379 -14.0368 -14.0365 -14.0352 -14.0348
   -14.0348 -14.0345 -14.0334 -14.0332 -14.0327 -14.0309 -14.0193 -14.0180
   -14.0170 -14.0166 -10.3150 -10.3141 -10.2992 -10.2983 -10.2830 -10.2829
    -9.5871  -9.5855  -9.4245  -9.3902  -9.3255  -9.3094  -9.2916  -9.2648
    -9.2514  -9.2215  -9.0494  -9.0467  -9.0071  -9.0064  -8.9729  -8.9701
    -8.9623  -8.9577  -8.9262  -8.9254  -8.8922  -8.8779  -8.8355  -8.8113
    -8.7947  -8.7826  -7.5768  -7.5759  -6.9983  -6.9973  -6.8114  -6.8083
    -6.8063  -6.8042  -6.8008  -6.7963  -6.7721  -6.7706  -6.7670  -6.7636
    -6.6989  -6.6978  -5.4660  -5.3051  -5.2892  -5.2486  -5.2412  -5.1240
    -5.0290  -4.8802  -4.8586  -4.7322  -4.6504  -4.6466  -4.6305  -4.6295
    -4.6255  -4.6013  -3.6985  -3.6957  -3.1523  -3.1512  -2.6448  -2.6424
    -2.6314  -2.6252  -2.6214  -2.6176  -2.6049  -2.6036  -2.5740  -2.5724
    -2.5637  -2.5612  -0.5728  -0.5390  -0.4987  -0.4613  -0.3707  -0.3132
    -0.2960  -0.2063  -0.1925  -0.1268  -0.0656  -0.0189   0.0906   0.0933
     0.2103   0.2228   0.3155   0.3338   0.3999   0.4353   0.4434   0.4908
     0.5306   0.5440   0.5816   0.5942   0.7212   0.7308   0.7606   0.7954
     0.8378   0.8761   0.8956   0.9174   0.9453   0.9559   1.0033   1.0240
     1.0719   1.0768   1.1428   1.1493   1.1753   1.1839   1.2644   1.2756
     1.3261   1.3342   1.3678   1.3746   1.4184   1.4273   1.4665   1.4678
     1.5204   1.5401   1.5503   1.5602   1.5669   1.6011   1.6287   1.6362
     1.6689   1.6956   1.7278   1.7320   1.7564   1.7781   1.8161   1.8456
     1.8684   1.8815   1.9285   1.9501

          k = 0.3750 0.1243 0.1205 (296505 PWs)   bands (ev):

   -17.7322 -17.7317 -17.3694 -17.3677 -17.3571 -17.3568 -17.2877 -17.2873
   -15.5907 -15.5881 -14.0959 -14.0952 -14.0869 -14.0857 -14.0816 -14.0807
   -14.0746 -14.0735 -14.0725 -14.0713 -14.0700 -14.0685 -14.0570 -14.0557
   -14.0556 -14.0548 -14.0547 -14.0541 -14.0527 -14.0509 -14.0495 -14.0494
   -14.0479 -14.0460 -14.0390 -14.0379 -14.0368 -14.0365 -14.0352 -14.0348
   -14.0347 -14.0346 -14.0334 -14.0332 -14.0328 -14.0309 -14.0193 -14.0180
   -14.0170 -14.0166 -10.3151 -10.3136 -10.3008 -10.2997 -10.2822 -10.2817
    -9.5837  -9.5805  -9.4654  -9.4264  -9.3203  -9.2780  -9.2667  -9.2188
    -9.1748  -9.1742  -9.1307  -9.1232  -9.0569  -9.0293  -8.9854  -8.9730
    -8.9461  -8.9436  -8.9343  -8.9281  -8.8562  -8.8444  -8.8323  -8.8086
    -8.8033  -8.7852  -7.5771  -7.5760  -6.9985  -6.9975  -6.8139  -6.8102
    -6.8081  -6.8067  -6.7996  -6.7955  -6.7701  -6.7674  -6.7669  -6.7642
    -6.6972  -6.6956  -5.5703  -5.3861  -5.2495  -5.2473  -5.1641  -5.1401
    -4.9891  -4.9612  -4.7659  -4.6743  -4.6544  -4.6481  -4.6284  -4.6275
    -4.6215  -4.5362  -3.6982  -3.6954  -3.1524  -3.1511  -2.6568  -2.6491
    -2.6318  -2.6256  -2.6176  -2.6158  -2.6107  -2.6081  -2.5688  -2.5665
    -2.5614  -2.5602  -0.7208  -0.7048  -0.6171  -0.5773  -0.5687  -0.5023
    -0.3896  -0.3418  -0.2637  -0.2150  -0.1235  -0.0521   0.0655   0.1556
     0.2268   0.3693   0.4159   0.4386   0.4472   0.5193   0.5202   0.5687
     0.5982   0.6298   0.6727   0.7266   0.7640   0.7823   0.8453   0.8564
     0.8852   0.9678   0.9992   1.0090   1.0469   1.0803   1.1134   1.1151
     1.1491   1.1610   1.1884   1.1907   1.2065   1.2253   1.2331   1.2608
     1.2934   1.3105   1.3251   1.3405   1.3562   1.3648   1.3982   1.4084
     1.4486   1.4507   1.5241   1.5430   1.5686   1.5763   1.6301   1.6550
     1.6859   1.6866   1.7129   1.7609   1.7848   1.8353   1.8395   1.8660
     1.8906   1.9039   1.9694   2.0467

          k = 0.3750 0.1243 0.3614 (296493 PWs)   bands (ev):

   -17.7322 -17.7317 -17.3694 -17.3677 -17.3571 -17.3568 -17.2877 -17.2873
   -15.5907 -15.5881 -14.0934 -14.0931 -14.0893 -14.0879 -14.0793 -14.0782
   -14.0760 -14.0746 -14.0727 -14.0726 -14.0702 -14.0690 -14.0570 -14.0557
   -14.0556 -14.0548 -14.0546 -14.0541 -14.0527 -14.0509 -14.0495 -14.0494
   -14.0479 -14.0461 -14.0390 -14.0379 -14.0368 -14.0365 -14.0352 -14.0348
   -14.0347 -14.0346 -14.0334 -14.0332 -14.0328 -14.0309 -14.0193 -14.0180
   -14.0170 -14.0166 -10.3147 -10.3137 -10.3007 -10.2998 -10.2821 -10.2819
    -9.5805  -9.5792  -9.4346  -9.3943  -9.3680  -9.3232  -9.2807  -9.2601
    -9.2098  -9.1987  -9.0514  -9.0454  -9.0206  -9.0059  -8.9963  -8.9832
    -8.9648  -8.9593  -8.9132  -8.9108  -8.8780  -8.8628  -8.8374  -8.8196
    -8.8003  -8.7915  -7.5773  -7.5764  -6.9986  -6.9976  -6.8131  -6.8101
    -6.8067  -6.8042  -6.7989  -6.7947  -6.7716  -6.7697  -6.7656  -6.7628
    -6.6990  -6.6977  -5.4570  -5.2971  -5.2594  -5.2485  -5.2444  -5.0981
    -5.0580  -4.8959  -4.8863  -4.7434  -4.6502  -4.6455  -4.6303  -4.6287
    -4.6268  -4.6067  -3.6985  -3.6957  -3.1523  -3.1512  -2.6474  -2.6455
    -2.6331  -2.6277  -2.6219  -2.6189  -2.6081  -2.6062  -2.5690  -2.5665
    -2.5619  -2.5599  -0.5451  -0.5118  -0.4499  -0.4406  -0.3274  -0.3021
    -0.2776  -0.2372  -0.1941  -0.1684  -0.0756  -0.0497   0.0526   0.0741
     0.2489   0.2662   0.3255   0.3340   0.3854   0.4122   0.4645   0.4831
     0.4942   0.5375   0.5914   0.6182   0.7359   0.7377   0.8014   0.8217
     0.8638   0.8650   0.9443   0.9506   0.9778   0.9853   1.0038   1.0199
     1.0764   1.0893   1.1110   1.1152   1.1680   1.1874   1.2341   1.2575
     1.3214   1.3232   1.3475   1.3549   1.3811   1.3922   1.4324   1.4423
     1.5073   1.5300   1.5333   1.5583   1.5785   1.5867   1.6183   1.6409
     1.6688   1.6837   1.6985   1.7310   1.7824   1.7886   1.8128   1.8271
     1.8408   1.8536   1.9163   1.9389

          k = 0.3750 0.3730 0.1205 (296540 PWs)   bands (ev):

   -17.7322 -17.7317 -17.3694 -17.3677 -17.3571 -17.3568 -17.2877 -17.2873
   -15.5907 -15.5881 -14.0957 -14.0951 -14.0867 -14.0855 -14.0813 -14.0806
   -14.0736 -14.0727 -14.0720 -14.0717 -14.0704 -14.0690 -14.0573 -14.0562
   -14.0557 -14.0551 -14.0548 -14.0546 -14.0528 -14.0510 -14.0496 -14.0495
   -14.0480 -14.0461 -14.0390 -14.0379 -14.0368 -14.0365 -14.0352 -14.0348
   -14.0347 -14.0346 -14.0334 -14.0332 -14.0328 -14.0309 -14.0193 -14.0180
   -14.0170 -14.0166 -10.3148 -10.3137 -10.2998 -10.2979 -10.2847 -10.2821
    -9.5869  -9.5819  -9.4254  -9.4013  -9.3705  -9.3059  -9.2414  -9.2142
    -9.2012  -9.1790  -9.1265  -9.1241  -9.0947  -9.0741  -8.9427  -8.9391
    -8.9378  -8.9322  -8.9180  -8.8999  -8.8620  -8.8531  -8.8368  -8.8274
    -8.7975  -8.7953  -7.5770  -7.5755  -6.9985  -6.9974  -6.8130  -6.8097
    -6.8090  -6.8061  -6.7990  -6.7962  -6.7711  -6.7682  -6.7670  -6.7639
    -6.6977  -6.6955  -5.4615  -5.3108  -5.2626  -5.2495  -5.2474  -5.1149
    -5.0413  -4.8889  -4.8597  -4.7409  -4.6503  -4.6479  -4.6331  -4.6272
    -4.6224  -4.5948  -3.6987  -3.6958  -3.1523  -3.1513  -2.6527  -2.6499
    -2.6277  -2.6234  -2.6173  -2.6161  -2.6094  -2.6081  -2.5707  -2.5680
    -2.5633  -2.5610  -0.6887  -0.6765  -0.6459  -0.6040  -0.3303  -0.2406
    -0.2180  -0.1895  -0.1507  -0.1224  -0.0302  -0.0049   0.1264   0.1435
     0.2208   0.2268   0.3811   0.4047   0.4555   0.4583   0.4932   0.5122
     0.5295   0.5594   0.6102   0.6316   0.6442   0.6892   0.7251   0.7728
     0.8797   0.9695   0.9965   1.0266   1.0344   1.0592   1.0897   1.1050
     1.1336   1.1446   1.1714   1.1812   1.1871   1.1984   1.2038   1.2445
     1.2492   1.2759   1.3226   1.3266   1.3421   1.3742   1.3823   1.4128
     1.4235   1.4353   1.4966   1.4999   1.5174   1.5443   1.6211   1.6265
     1.6593   1.6691   1.7205   1.7489   1.7795   1.7980   1.8480   1.8583
     1.8813   1.8938   1.9770   1.9800

          k = 0.3750 0.3730 0.3614 (296451 PWs)   bands (ev):

   -17.7322 -17.7317 -17.3694 -17.3677 -17.3571 -17.3568 -17.2877 -17.2873
   -15.5907 -15.5881 -14.0933 -14.0929 -14.0891 -14.0877 -14.0789 -14.0781
   -14.0751 -14.0742 -14.0727 -14.0725 -14.0707 -14.0692 -14.0573 -14.0562
   -14.0557 -14.0551 -14.0548 -14.0546 -14.0528 -14.0510 -14.0496 -14.0495
   -14.0480 -14.0461 -14.0390 -14.0379 -14.0368 -14.0365 -14.0352 -14.0348
   -14.0347 -14.0346 -14.0334 -14.0332 -14.0328 -14.0309 -14.0193 -14.0180
   -14.0170 -14.0166 -10.3147 -10.3137 -10.2994 -10.2983 -10.2838 -10.2829
    -9.5832  -9.5810  -9.3977  -9.3669  -9.3619  -9.3112  -9.3086  -9.2860
    -9.2564  -9.2275  -9.0497  -9.0469  -9.0250  -9.0247  -8.9662  -8.9599
    -8.9546  -8.9540  -8.9043  -8.8926  -8.8752  -8.8731  -8.8286  -8.8213
    -8.8085  -8.8040  -7.5770  -7.5760  -6.9985  -6.9975  -6.8125  -6.8098
    -6.8065  -6.8041  -6.7983  -6.7951  -6.7723  -6.7704  -6.7660  -6.7629
    -6.6992  -6.6979  -5.3514  -5.2519  -5.2480  -5.2038  -5.1769  -5.1495
    -5.0322  -5.0068  -4.9880  -4.8530  -4.6481  -4.6467  -4.6324  -4.6290
    -4.6264  -4.6205  -3.6988  -3.6961  -3.1523  -3.1513  -2.6454  -2.6447
    -2.6308  -2.6258  -2.6207  -2.6183  -2.6080  -2.6069  -2.5698  -2.5678
    -2.5623  -2.5603  -0.3636  -0.3436  -0.3199  -0.3001  -0.2476  -0.2387
    -0.1800  -0.1459  -0.1395  -0.0903  -0.0523  -0.0461   0.0873   0.0974
     0.2212   0.2441   0.2918   0.3308   0.3467   0.3498   0.3711   0.4095
     0.4481   0.4764   0.5118   0.5312   0.7414   0.7529   0.7808   0.8198
     0.8491   0.8530   0.9016   0.9021   0.9402   0.9420   0.9703   0.9820
     1.0298   1.0491   1.0739   1.0983   1.1646   1.1757   1.1961   1.1989
     1.2307   1.2574   1.3010   1.3211   1.3879   1.3908   1.4262   1.4412
     1.4452   1.4477   1.5142   1.5310   1.5526   1.5566   1.5944   1.6016
     1.6663   1.6691   1.7077   1.7157   1.7694   1.7735   1.8286   1.8345
     1.8694   1.8823   1.9021   1.9070

          k =-0.1250-0.1243 0.1205 (296441 PWs)   bands (ev):

   -17.7322 -17.7317 -17.3694 -17.3677 -17.3571 -17.3568 -17.2877 -17.2873
   -15.5907 -15.5881 -14.0960 -14.0954 -14.0870 -14.0859 -14.0823 -14.0805
   -14.0758 -14.0742 -14.0737 -14.0714 -14.0697 -14.0675 -14.0566 -14.0555
   -14.0554 -14.0548 -14.0540 -14.0536 -14.0523 -14.0508 -14.0494 -14.0493
   -14.0478 -14.0460 -14.0390 -14.0379 -14.0367 -14.0365 -14.0352 -14.0348
   -14.0348 -14.0345 -14.0334 -14.0332 -14.0327 -14.0309 -14.0193 -14.0180
   -14.0170 -14.0166 -10.3172 -10.3147 -10.2992 -10.2983 -10.2824 -10.2810
    -9.5922  -9.5856  -9.4852  -9.3754  -9.3409  -9.2933  -9.2567  -9.1986
    -9.1830  -9.1647  -9.1309  -9.0878  -9.0527  -8.9962  -8.9916  -8.9752
    -8.9741  -8.9584  -8.9530  -8.9417  -8.9060  -8.8582  -8.8279  -8.7989
    -8.7819  -8.7593  -7.5780  -7.5747  -6.9984  -6.9973  -6.8135  -6.8087
    -6.8080  -6.8064  -6.8025  -6.7958  -6.7704  -6.7685  -6.7671  -6.7641
    -6.6971  -6.6952  -5.6922  -5.2833  -5.2645  -5.2482  -5.2419  -5.2322
    -4.8634  -4.8488  -4.8209  -4.6613  -4.6489  -4.6445  -4.6356  -4.6293
    -4.6252  -4.4151  -3.6975  -3.6947  -3.1528  -3.1506  -2.6624  -2.6431
    -2.6403  -2.6297  -2.6140  -2.6128  -2.6027  -2.6001  -2.5736  -2.5710
    -2.5645  -2.5590  -0.7365  -0.6954  -0.6428  -0.6334  -0.6094  -0.5412
    -0.5399  -0.4779  -0.4349  -0.3807  -0.3737  -0.2962   0.0260   0.1317
     0.3848   0.4440   0.4709   0.4741   0.5260   0.5458   0.5633   0.6459
     0.6806   0.6815   0.7404   0.7607   0.8128   0.8872   0.8901   0.9084
     0.9487   0.9859   1.0229   1.0542   1.0691   1.1036   1.1099   1.1337
     1.1483   1.1652   1.1814   1.2002   1.2049   1.2308   1.2455   1.2604
     1.3029   1.3132   1.3247   1.3832   1.3853   1.4491   1.4718   1.4755
     1.4836   1.4861   1.5460   1.5546   1.5551   1.5635   1.5981   1.6099
     1.6700   1.7008   1.7357   1.7877   1.8041   1.8356   1.8488   1.8861
     1.9078   1.9802   2.0637   2.2365

          k =-0.1250 0.1243-0.1205 (296441 PWs)   bands (ev):

   -17.7322 -17.7317 -17.3694 -17.3677 -17.3571 -17.3568 -17.2877 -17.2873
   -15.5907 -15.5881 -14.0960 -14.0954 -14.0870 -14.0859 -14.0823 -14.0805
   -14.0758 -14.0742 -14.0737 -14.0714 -14.0697 -14.0675 -14.0566 -14.0555
   -14.0554 -14.0548 -14.0540 -14.0536 -14.0523 -14.0508 -14.0494 -14.0493
   -14.0478 -14.0460 -14.0390 -14.0379 -14.0367 -14.0365 -14.0352 -14.0348
   -14.0348 -14.0345 -14.0334 -14.0332 -14.0327 -14.0309 -14.0193 -14.0180
   -14.0170 -14.0166 -10.3176 -10.3151 -10.2986 -10.2978 -10.2829 -10.2805
    -9.5916  -9.5860  -9.4872  -9.3744  -9.3363  -9.2910  -9.2639  -9.1986
    -9.1851  -9.1593  -9.1334  -9.0846  -9.0611  -8.9960  -8.9881  -8.9760
    -8.9635  -8.9556  -8.9528  -8.9473  -8.9128  -8.8594  -8.8275  -8.7994
    -8.7806  -8.7582  -7.5782  -7.5744  -6.9985  -6.9973  -6.8132  -6.8086
    -6.8080  -6.8064  -6.8029  -6.7952  -6.7704  -6.7685  -6.7672  -6.7643
    -6.6969  -6.6954  -5.6923  -5.2828  -5.2645  -5.2483  -5.2427  -5.2316
    -4.8639  -4.8490  -4.8223  -4.6624  -4.6472  -4.6462  -4.6344  -4.6293
    -4.6222  -4.4163  -3.6974  -3.6946  -3.1528  -3.1506  -2.6626  -2.6431
    -2.6393  -2.6287  -2.6143  -2.6134  -2.6041  -2.6009  -2.5725  -2.5710
    -2.5647  -2.5585  -0.7370  -0.6980  -0.6557  -0.6418  -0.5912  -0.5415
    -0.5332  -0.4745  -0.4348  -0.3828  -0.3692  -0.3027   0.0304   0.1302
     0.3929   0.4347   0.4741   0.4938   0.5150   0.5488   0.5510   0.6499
     0.6714   0.6746   0.7355   0.7653   0.8097   0.8751   0.8793   0.9352
     0.9516   0.9787   1.0226   1.0587   1.0607   1.0963   1.1067   1.1263
     1.1434   1.1630   1.1793   1.2066   1.2074   1.2394   1.2676   1.2750
     1.2899   1.3132   1.3358   1.3850   1.3864   1.4464   1.4680   1.4709
     1.4786   1.4993   1.5431   1.5506   1.5578   1.5766   1.5955   1.6054
     1.6691   1.7054   1.7179   1.7846   1.8107   1.8376   1.8499   1.8841
     1.9062   1.9775   2.0687   2.2365

          k = 0.1250-0.1243-0.1205 (296441 PWs)   bands (ev):

   -17.7322 -17.7317 -17.3694 -17.3677 -17.3571 -17.3568 -17.2877 -17.2873
   -15.5907 -15.5881 -14.0960 -14.0954 -14.0870 -14.0859 -14.0823 -14.0805
   -14.0758 -14.0742 -14.0737 -14.0714 -14.0697 -14.0675 -14.0566 -14.0555
   -14.0554 -14.0548 -14.0540 -14.0536 -14.0523 -14.0508 -14.0494 -14.0493
   -14.0478 -14.0460 -14.0390 -14.0379 -14.0367 -14.0365 -14.0352 -14.0348
   -14.0348 -14.0345 -14.0334 -14.0332 -14.0327 -14.0309 -14.0193 -14.0180
   -14.0170 -14.0166 -10.3176 -10.3151 -10.2986 -10.2978 -10.2829 -10.2805
    -9.5916  -9.5860  -9.4873  -9.3743  -9.3362  -9.2912  -9.2638  -9.1983
    -9.1855  -9.1597  -9.1334  -9.0838  -9.0611  -8.9958  -8.9881  -8.9751
    -8.9671  -8.9561  -8.9496  -8.9479  -8.9127  -8.8594  -8.8275  -8.7992
    -8.7809  -8.7582  -7.5782  -7.5744  -6.9985  -6.9973  -6.8131  -6.8088
    -6.8084  -6.8061  -6.8029  -6.7953  -6.7700  -6.7688  -6.7674  -6.7642
    -6.6969  -6.6955  -5.6923  -5.2831  -5.2641  -5.2483  -5.2428  -5.2316
    -4.8644  -4.8485  -4.8223  -4.6624  -4.6473  -4.6463  -4.6344  -4.6293
    -4.6222  -4.4163  -3.6974  -3.6946  -3.1528  -3.1506  -2.6625  -2.6428
    -2.6394  -2.6291  -2.6142  -2.6131  -2.6040  -2.6010  -2.5725  -2.5712
    -2.5650  -2.5581  -0.7372  -0.6977  -0.6557  -0.6418  -0.5903  -0.5424
    -0.5326  -0.4750  -0.4351  -0.3831  -0.3691  -0.3027   0.0302   0.1303
     0.3926   0.4348   0.4745   0.4940   0.5146   0.5489   0.5508   0.6496
     0.6723   0.6750   0.7352   0.7653   0.8088   0.8743   0.8802   0.9358
     0.9515   0.9787   1.0222   1.0589   1.0625   1.0975   1.1072   1.1259
     1.1450   1.1647   1.1783   1.2049   1.2082   1.2370   1.2705   1.2734
     1.2891   1.3135   1.3333   1.3825   1.3854   1.4462   1.4692   1.4725
     1.4776   1.5016   1.5442   1.5508   1.5548   1.5792   1.5918   1.6045
     1.6718   1.7038   1.7194   1.7848   1.8091   1.8379   1.8492   1.8843
     1.9082   1.9773   2.0684   2.2372

          k =-0.1250-0.1243 0.3614 (296498 PWs)   bands (ev):

   -17.7322 -17.7317 -17.3694 -17.3677 -17.3571 -17.3568 -17.2877 -17.2873
   -15.5907 -15.5881 -14.0936 -14.0932 -14.0895 -14.0881 -14.0801 -14.0780
   -14.0771 -14.0742 -14.0740 -14.0738 -14.0694 -14.0684 -14.0566 -14.0555
   -14.0554 -14.0548 -14.0540 -14.0536 -14.0523 -14.0509 -14.0494 -14.0493
   -14.0478 -14.0460 -14.0390 -14.0379 -14.0368 -14.0365 -14.0352 -14.0348
   -14.0348 -14.0345 -14.0334 -14.0332 -14.0327 -14.0309 -14.0193 -14.0180
   -14.0170 -14.0166 -10.3165 -10.3152 -10.2991 -10.2982 -10.2820 -10.2815
    -9.5850  -9.5831  -9.4614  -9.4058  -9.3411  -9.2834  -9.2825  -9.2499
    -9.2068  -9.1980  -9.0529  -9.0379  -9.0166  -9.0073  -8.9834  -8.9820
    -8.9811  -8.9669  -8.9321  -8.9303  -8.8873  -8.8679  -8.8580  -8.8285
    -8.7750  -8.7661  -7.5774  -7.5758  -6.9984  -6.9974  -6.8123  -6.8088
    -6.8066  -6.8040  -6.8003  -6.7966  -6.7708  -6.7701  -6.7667  -6.7635
    -6.6989  -6.6976  -5.5756  -5.3975  -5.2489  -5.2467  -5.1704  -5.1267
    -4.9991  -4.9561  -4.7571  -4.6683  -4.6569  -4.6500  -4.6293  -4.6284
    -4.6202  -4.5377  -3.6978  -3.6951  -3.1524  -3.1511  -2.6492  -2.6425
    -2.6394  -2.6282  -2.6234  -2.6179  -2.5993  -2.5978  -2.5735  -2.5714
    -2.5637  -2.5605  -0.6119  -0.5816  -0.5781  -0.5295  -0.4533  -0.4106
    -0.4013  -0.3927  -0.2717  -0.2594  -0.2288  -0.1452   0.0348   0.1055
     0.2791   0.3125   0.3878   0.4167   0.4588   0.4940   0.5111   0.5537
     0.5698   0.5791   0.5976   0.6346   0.6535   0.6829   0.8248   0.8693
     0.8780   0.9119   0.9497   0.9825   1.0350   1.0455   1.0880   1.0949
     1.1207   1.1341   1.1535   1.1701   1.2594   1.2649   1.2925   1.3149
     1.3284   1.3531   1.3718   1.3765   1.4230   1.4389   1.4634   1.4895
     1.5121   1.5205   1.5237   1.5326   1.5711   1.5728   1.5983   1.6277
     1.6605   1.7010   1.7212   1.7456   1.7580   1.8028   1.8055   1.8266
     1.8554   1.8651   2.0722   2.1101

          k =-0.1250 0.1243-0.3614 (296498 PWs)   bands (ev):

   -17.7322 -17.7317 -17.3694 -17.3677 -17.3571 -17.3568 -17.2877 -17.2873
   -15.5907 -15.5881 -14.0936 -14.0932 -14.0895 -14.0881 -14.0801 -14.0780
   -14.0771 -14.0743 -14.0740 -14.0738 -14.0694 -14.0684 -14.0566 -14.0555
   -14.0554 -14.0548 -14.0540 -14.0536 -14.0523 -14.0509 -14.0494 -14.0493
   -14.0478 -14.0460 -14.0390 -14.0379 -14.0368 -14.0365 -14.0352 -14.0348
   -14.0348 -14.0345 -14.0334 -14.0332 -14.0327 -14.0309 -14.0193 -14.0180
   -14.0170 -14.0166 -10.3169 -10.3156 -10.2986 -10.2977 -10.2823 -10.2813
    -9.5846  -9.5830  -9.4632  -9.4069  -9.3395  -9.2824  -9.2783  -9.2509
    -9.2060  -9.2014  -9.0538  -9.0383  -9.0193  -9.0081  -8.9876  -8.9798
    -8.9752  -8.9635  -8.9353  -8.9305  -8.8826  -8.8747  -8.8563  -8.8302
    -8.7738  -8.7650  -7.5775  -7.5757  -6.9985  -6.9974  -6.8124  -6.8088
    -6.8054  -6.8046  -6.8011  -6.7961  -6.7713  -6.7700  -6.7666  -6.7635
    -6.6988  -6.6976  -5.5756  -5.3973  -5.2490  -5.2468  -5.1701  -5.1272
    -4.9993  -4.9569  -4.7564  -4.6659  -4.6577  -4.6513  -4.6292  -4.6280
    -4.6191  -4.5391  -3.6977  -3.6950  -3.1524  -3.1511  -2.6494  -2.6424
    -2.6380  -2.6280  -2.6233  -2.6182  -2.6006  -2.5988  -2.5728  -2.5708
    -2.5634  -2.5607  -0.6237  -0.5863  -0.5703  -0.5236  -0.4516  -0.4150
    -0.4008  -0.3845  -0.2779  -0.2531  -0.2280  -0.1492   0.0397   0.1038
     0.2771   0.3116   0.3891   0.4240   0.4674   0.4889   0.5134   0.5407
     0.5687   0.5749   0.6086   0.6240   0.6401   0.7013   0.8304   0.8667
     0.8683   0.9036   0.9399   0.9800   1.0285   1.0548   1.0796   1.0889
     1.1183   1.1334   1.1559   1.1730   1.2708   1.2854   1.3037   1.3261
     1.3341   1.3401   1.3570   1.3897   1.4268   1.4368   1.4531   1.4919
     1.5108   1.5184   1.5294   1.5355   1.5716   1.5749   1.6008   1.6268
     1.6704   1.6919   1.7089   1.7449   1.7637   1.8003   1.8079   1.8251
     1.8520   1.8617   2.0753   2.1100

          k = 0.1250-0.1243-0.3614 (296498 PWs)   bands (ev):

   -17.7322 -17.7317 -17.3694 -17.3677 -17.3571 -17.3568 -17.2877 -17.2873
   -15.5907 -15.5881 -14.0936 -14.0932 -14.0895 -14.0881 -14.0801 -14.0780
   -14.0771 -14.0743 -14.0740 -14.0738 -14.0694 -14.0684 -14.0566 -14.0555
   -14.0554 -14.0548 -14.0540 -14.0536 -14.0523 -14.0509 -14.0494 -14.0493
   -14.0478 -14.0460 -14.0390 -14.0379 -14.0368 -14.0365 -14.0352 -14.0348
   -14.0348 -14.0345 -14.0334 -14.0332 -14.0327 -14.0309 -14.0193 -14.0180
   -14.0170 -14.0166 -10.3169 -10.3156 -10.2986 -10.2977 -10.2823 -10.2813
    -9.5845  -9.5831  -9.4635  -9.4064  -9.3399  -9.2822  -9.2781  -9.2510
    -9.2058  -9.2019  -9.0545  -9.0373  -9.0179  -9.0084  -8.9863  -8.9837
    -8.9738  -8.9644  -8.9368  -8.9279  -8.8829  -8.8748  -8.8562  -8.8300
    -8.7740  -8.7649  -7.5774  -7.5757  -6.9985  -6.9974  -6.8122  -6.8091
    -6.8058  -6.8041  -6.8009  -6.7963  -6.7710  -6.7702  -6.7667  -6.7634
    -6.6988  -6.6976  -5.5756  -5.3974  -5.2489  -5.2467  -5.1702  -5.1272
    -4.9993  -4.9569  -4.7562  -4.6660  -4.6578  -4.6513  -4.6291  -4.6281
    -4.6191  -4.5391  -3.6977  -3.6950  -3.1524  -3.1511  -2.6494  -2.6419
    -2.6385  -2.6280  -2.6237  -2.6178  -2.6006  -2.5989  -2.5727  -2.5710
    -2.5640  -2.5601  -0.6240  -0.5860  -0.5705  -0.5232  -0.4519  -0.4132
    -0.4009  -0.3847  -0.2793  -0.2534  -0.2288  -0.1492   0.0393   0.1040
     0.2779   0.3117   0.3897   0.4236   0.4676   0.4889   0.5126   0.5410
     0.5685   0.5750   0.6088   0.6242   0.6404   0.7012   0.8316   0.8674
     0.8680   0.9018   0.9407   0.9782   1.0278   1.0566   1.0827   1.0889
     1.1175   1.1331   1.1541   1.1733   1.2708   1.2868   1.3072   1.3224
     1.3317   1.3375   1.3598   1.3865   1.4257   1.4374   1.4565   1.4930
     1.5101   1.5197   1.5298   1.5348   1.5726   1.5740   1.5992   1.6242
     1.6703   1.6952   1.7083   1.7459   1.7634   1.7974   1.8090   1.8264
     1.8525   1.8616   2.0746   2.1109

          k =-0.1250-0.3730 0.1205 (296520 PWs)   bands (ev):

   -17.7322 -17.7317 -17.3694 -17.3677 -17.3571 -17.3568 -17.2877 -17.2873
   -15.5907 -15.5881 -14.0959 -14.0952 -14.0868 -14.0857 -14.0817 -14.0808
   -14.0748 -14.0739 -14.0726 -14.0713 -14.0702 -14.0687 -14.0565 -14.0557
   -14.0555 -14.0548 -14.0545 -14.0539 -14.0527 -14.0509 -14.0495 -14.0494
   -14.0479 -14.0460 -14.0390 -14.0379 -14.0367 -14.0365 -14.0352 -14.0348
   -14.0348 -14.0345 -14.0334 -14.0332 -14.0327 -14.0309 -14.0193 -14.0180
   -14.0170 -14.0166 -10.3153 -10.3139 -10.2993 -10.2983 -10.2833 -10.2827
    -9.5924  -9.5886  -9.4447  -9.3879  -9.3478  -9.2862  -9.2678  -9.2163
    -9.1943  -9.1885  -9.1286  -9.1248  -9.0392  -9.0201  -8.9676  -8.9647
    -8.9561  -8.9466  -8.9380  -8.9231  -8.8746  -8.8536  -8.8513  -8.8083
    -8.7862  -8.7722  -7.5767  -7.5755  -6.9983  -6.9973  -6.8118  -6.8083
    -6.8076  -6.8068  -6.8015  -6.7975  -6.7711  -6.7691  -6.7676  -6.7643
    -6.6972  -6.6955  -5.5796  -5.4102  -5.2496  -5.2474  -5.1524  -5.1330
    -4.9894  -4.9742  -4.7395  -4.6698  -4.6533  -4.6450  -4.6351  -4.6311
    -4.6123  -4.5234  -3.6982  -3.6954  -3.1524  -3.1511  -2.6547  -2.6469
    -2.6300  -2.6233  -2.6142  -2.6131  -2.6076  -2.6059  -2.5751  -2.5718
    -2.5646  -2.5623  -0.7100  -0.6742  -0.6449  -0.5978  -0.5701  -0.5286
    -0.4938  -0.4254  -0.2825  -0.1184  -0.0758   0.0029   0.1071   0.1113
     0.1775   0.3573   0.3932   0.4562   0.4804   0.4940   0.5478   0.5631
     0.5928   0.6114   0.6446   0.7012   0.7475   0.8005   0.8378   0.8850
     0.8922   0.9231   1.0159   1.0171   1.0552   1.0569   1.0979   1.0985
     1.1245   1.1321   1.1710   1.1859   1.2075   1.2096   1.2489   1.2531
     1.2933   1.3005   1.3154   1.3389   1.3883   1.3899   1.4539   1.4658
     1.4791   1.5168   1.5372   1.5453   1.5804   1.6239   1.6311   1.6334
     1.6527   1.6971   1.7068   1.7545   1.7995   1.8275   1.8530   1.8768
     1.9122   1.9154   2.0105   2.0827

          k =-0.1250 0.3730-0.1205 (296520 PWs)   bands (ev):

   -17.7322 -17.7317 -17.3694 -17.3677 -17.3571 -17.3568 -17.2877 -17.2873
   -15.5907 -15.5881 -14.0959 -14.0952 -14.0868 -14.0857 -14.0817 -14.0808
   -14.0748 -14.0739 -14.0726 -14.0713 -14.0702 -14.0687 -14.0565 -14.0557
   -14.0555 -14.0548 -14.0545 -14.0539 -14.0527 -14.0509 -14.0495 -14.0494
   -14.0479 -14.0460 -14.0390 -14.0379 -14.0367 -14.0365 -14.0352 -14.0348
   -14.0348 -14.0345 -14.0334 -14.0332 -14.0327 -14.0309 -14.0193 -14.0180
   -14.0170 -14.0166 -10.3157 -10.3145 -10.2988 -10.2976 -10.2839 -10.2821
    -9.5914  -9.5896  -9.4483  -9.3895  -9.3263  -9.3045  -9.2682  -9.2157
    -9.1950  -9.1841  -9.1359  -9.1188  -9.0472  -9.0130  -8.9694  -8.9585
    -8.9523  -8.9464  -8.9439  -8.9225  -8.8760  -8.8575  -8.8530  -8.8050
    -8.7877  -8.7696  -7.5772  -7.5749  -6.9984  -6.9973  -6.8113  -6.8087
    -6.8080  -6.8065  -6.8016  -6.7969  -6.7708  -6.7699  -6.7676  -6.7643
    -6.6969  -6.6958  -5.5799  -5.4099  -5.2498  -5.2475  -5.1514  -5.1330
    -4.9904  -4.9744  -4.7443  -4.6651  -4.6535  -4.6465  -4.6329  -4.6321
    -4.6069  -4.5278  -3.6981  -3.6953  -3.1524  -3.1511  -2.6549  -2.6468
    -2.6274  -2.6222  -2.6155  -2.6140  -2.6092  -2.6069  -2.5737  -2.5722
    -2.5653  -2.5612  -0.7134  -0.6702  -0.6458  -0.6062  -0.5753  -0.5227
    -0.4870  -0.4259  -0.2805  -0.1141  -0.0758  -0.0053   0.1063   0.1230
     0.1848   0.3496   0.3958   0.4648   0.4674   0.5089   0.5230   0.5615
     0.5968   0.6073   0.6383   0.7117   0.7551   0.7914   0.8219   0.8499
     0.9097   0.9396   1.0088   1.0102   1.0555   1.0786   1.0912   1.0947
     1.1327   1.1412   1.1648   1.1809   1.1969   1.2323   1.2395   1.2661
     1.3009   1.3069   1.3320   1.3440   1.3694   1.3747   1.4616   1.4660
     1.4812   1.5148   1.5348   1.5663   1.5666   1.6110   1.6125   1.6565
     1.6601   1.6855   1.7242   1.7527   1.7884   1.8124   1.8511   1.8772
     1.9071   1.9358   2.0012   2.0906

          k = 0.1250-0.3730-0.1205 (296520 PWs)   bands (ev):

   -17.7322 -17.7317 -17.3694 -17.3677 -17.3571 -17.3568 -17.2877 -17.2873
   -15.5907 -15.5881 -14.0959 -14.0952 -14.0868 -14.0857 -14.0817 -14.0808
   -14.0748 -14.0739 -14.0726 -14.0713 -14.0702 -14.0687 -14.0565 -14.0557
   -14.0555 -14.0548 -14.0545 -14.0539 -14.0527 -14.0509 -14.0495 -14.0494
   -14.0479 -14.0460 -14.0390 -14.0379 -14.0367 -14.0365 -14.0352 -14.0348
   -14.0348 -14.0345 -14.0334 -14.0332 -14.0327 -14.0309 -14.0193 -14.0180
   -14.0170 -14.0166 -10.3157 -10.3145 -10.2988 -10.2976 -10.2839 -10.2821
    -9.5914  -9.5896  -9.4485  -9.3892  -9.3263  -9.3046  -9.2685  -9.2138
    -9.1946  -9.1869  -9.1367  -9.1174  -9.0471  -9.0124  -8.9691  -8.9607
    -8.9530  -8.9447  -8.9436  -8.9227  -8.8760  -8.8575  -8.8529  -8.8044
    -8.7883  -8.7696  -7.5772  -7.5749  -6.9984  -6.9973  -6.8113  -6.8086
    -6.8081  -6.8063  -6.8021  -6.7968  -6.7706  -6.7696  -6.7677  -6.7644
    -6.6969  -6.6958  -5.5799  -5.4099  -5.2498  -5.2475  -5.1514  -5.1330
    -4.9910  -4.9738  -4.7444  -4.6652  -4.6535  -4.6465  -4.6329  -4.6321
    -4.6067  -4.5279  -3.6981  -3.6953  -3.1524  -3.1511  -2.6549  -2.6467
    -2.6276  -2.6222  -2.6156  -2.6138  -2.6094  -2.6066  -2.5741  -2.5718
    -2.5656  -2.5608  -0.7134  -0.6704  -0.6451  -0.6064  -0.5753  -0.5213
    -0.4893  -0.4253  -0.2809  -0.1141  -0.0759  -0.0054   0.1067   0.1226
     0.1849   0.3499   0.3958   0.4641   0.4672   0.5091   0.5239   0.5629
     0.5959   0.6068   0.6382   0.7131   0.7547   0.7918   0.8211   0.8500
     0.9091   0.9388   1.0099   1.0124   1.0554   1.0782   1.0924   1.0931
     1.1323   1.1415   1.1628   1.1810   1.1975   1.2365   1.2413   1.2618
     1.2978   1.3085   1.3331   1.3440   1.3678   1.3737   1.4617   1.4661
     1.4809   1.5126   1.5354   1.5665   1.5683   1.6112   1.6121   1.6544
     1.6623   1.6870   1.7240   1.7516   1.7882   1.8129   1.8504   1.8779
     1.9076   1.9355   2.0014   2.0910

          k =-0.1250-0.3730 0.3614 (296508 PWs)   bands (ev):

   -17.7322 -17.7317 -17.3694 -17.3677 -17.3571 -17.3568 -17.2877 -17.2873
   -15.5907 -15.5881 -14.0934 -14.0930 -14.0893 -14.0879 -14.0794 -14.0784
   -14.0762 -14.0749 -14.0728 -14.0726 -14.0704 -14.0694 -14.0565 -14.0557
   -14.0555 -14.0548 -14.0545 -14.0539 -14.0527 -14.0509 -14.0495 -14.0494
   -14.0479 -14.0460 -14.0390 -14.0379 -14.0368 -14.0365 -14.0352 -14.0348
   -14.0348 -14.0345 -14.0334 -14.0332 -14.0327 -14.0309 -14.0193 -14.0180
   -14.0170 -14.0166 -10.3150 -10.3140 -10.2992 -10.2983 -10.2831 -10.2828
    -9.5870  -9.5856  -9.4239  -9.3915  -9.3253  -9.3079  -9.2925  -9.2644
    -9.2513  -9.2222  -9.0492  -9.0479  -9.0059  -9.0040  -8.9755  -8.9736
    -8.9615  -8.9548  -8.9264  -8.9251  -8.8923  -8.8781  -8.8351  -8.8126
    -8.7933  -8.7830  -7.5768  -7.5759  -6.9983  -6.9973  -6.8116  -6.8081
    -6.8062  -6.8043  -6.8004  -6.7966  -6.7717  -6.7710  -6.7669  -6.7637
    -6.6990  -6.6977  -5.4661  -5.3038  -5.2905  -5.2487  -5.2412  -5.1238
    -5.0289  -4.8792  -4.8596  -4.7324  -4.6505  -4.6465  -4.6304  -4.6296
    -4.6257  -4.6010  -3.6985  -3.6957  -3.1523  -3.1512  -2.6447  -2.6422
    -2.6317  -2.6253  -2.6213  -2.6176  -2.6049  -2.6035  -2.5745  -2.5718
    -2.5638  -2.5614  -0.5716  -0.5421  -0.4948  -0.4631  -0.3713  -0.3138
    -0.2959  -0.2077  -0.1909  -0.1252  -0.0652  -0.0184   0.0912   0.0924
     0.2103   0.2221   0.3128   0.3342   0.4004   0.4374   0.4440   0.4896
     0.5280   0.5447   0.5810   0.5962   0.7190   0.7318   0.7609   0.7945
     0.8383   0.8764   0.8982   0.9153   0.9456   0.9550   1.0053   1.0232
     1.0730   1.0762   1.1439   1.1478   1.1748   1.1847   1.2668   1.2725
     1.3257   1.3344   1.3682   1.3741   1.4220   1.4255   1.4644   1.4688
     1.5198   1.5408   1.5498   1.5615   1.5676   1.6009   1.6276   1.6359
     1.6697   1.6956   1.7290   1.7314   1.7551   1.7799   1.8142   1.8460
     1.8688   1.8816   1.9271   1.9504

          k =-0.1250 0.3730-0.3614 (296508 PWs)   bands (ev):

   -17.7322 -17.7317 -17.3694 -17.3677 -17.3571 -17.3568 -17.2877 -17.2873
   -15.5907 -15.5881 -14.0934 -14.0930 -14.0893 -14.0879 -14.0794 -14.0784
   -14.0762 -14.0749 -14.0728 -14.0726 -14.0704 -14.0694 -14.0565 -14.0557
   -14.0555 -14.0548 -14.0545 -14.0539 -14.0527 -14.0509 -14.0495 -14.0494
   -14.0479 -14.0460 -14.0390 -14.0379 -14.0368 -14.0365 -14.0352 -14.0348
   -14.0348 -14.0345 -14.0334 -14.0332 -14.0327 -14.0309 -14.0193 -14.0180
   -14.0170 -14.0166 -10.3155 -10.3146 -10.2986 -10.2977 -10.2834 -10.2827
    -9.5864  -9.5859  -9.4272  -9.3919  -9.3270  -9.2974  -9.2911  -9.2718
    -9.2398  -9.2326  -9.0539  -9.0437  -9.0161  -8.9991  -8.9718  -8.9705
    -8.9633  -8.9477  -8.9349  -8.9237  -8.8931  -8.8754  -8.8398  -8.8143
    -8.7912  -8.7804  -7.5770  -7.5756  -6.9984  -6.9974  -6.8115  -6.8082
    -6.8062  -6.8043  -6.8002  -6.7965  -6.7720  -6.7712  -6.7669  -6.7635
    -6.6989  -6.6978  -5.4660  -5.3037  -5.2903  -5.2487  -5.2411  -5.1246
    -5.0296  -4.8788  -4.8611  -4.7277  -4.6520  -4.6480  -4.6310  -4.6282
    -4.6237  -4.6033  -3.6983  -3.6956  -3.1523  -3.1512  -2.6454  -2.6415
    -2.6295  -2.6262  -2.6203  -2.6175  -2.6067  -2.6053  -2.5733  -2.5717
    -2.5636  -2.5614  -0.5760  -0.5475  -0.4947  -0.4584  -0.3723  -0.3112
    -0.2843  -0.2134  -0.1977  -0.1162  -0.0643  -0.0230   0.0901   0.1005
     0.2084   0.2245   0.3103   0.3433   0.4016   0.4327   0.4388   0.4737
     0.5397   0.5405   0.5872   0.5897   0.7304   0.7370   0.7578   0.7816
     0.8253   0.8569   0.9084   0.9323   0.9346   0.9447   0.9994   1.0251
     1.0685   1.0796   1.1366   1.1473   1.1879   1.2098   1.2746   1.2760
     1.3283   1.3388   1.3676   1.3694   1.4214   1.4310   1.4627   1.4729
     1.5103   1.5208   1.5495   1.5700   1.5949   1.6039   1.6120   1.6311
     1.6772   1.6827   1.7207   1.7483   1.7740   1.7971   1.7994   1.8281
     1.8531   1.8549   1.9423   1.9671

          k = 0.1250-0.3730-0.3614 (296508 PWs)   bands (ev):

   -17.7322 -17.7317 -17.3694 -17.3677 -17.3571 -17.3568 -17.2877 -17.2873
   -15.5907 -15.5881 -14.0934 -14.0930 -14.0893 -14.0879 -14.0794 -14.0784
   -14.0762 -14.0749 -14.0728 -14.0726 -14.0704 -14.0694 -14.0565 -14.0557
   -14.0555 -14.0548 -14.0545 -14.0539 -14.0527 -14.0509 -14.0495 -14.0494
   -14.0479 -14.0460 -14.0390 -14.0379 -14.0368 -14.0365 -14.0352 -14.0348
   -14.0348 -14.0345 -14.0334 -14.0332 -14.0327 -14.0309 -14.0193 -14.0180
   -14.0170 -14.0166 -10.3155 -10.3146 -10.2986 -10.2977 -10.2834 -10.2826
    -9.5864  -9.5859  -9.4279  -9.3905  -9.3283  -9.2973  -9.2907  -9.2703
    -9.2407  -9.2329  -9.0551  -9.0430  -9.0139  -8.9989  -8.9746  -8.9688
    -8.9651  -8.9469  -8.9354  -8.9228  -8.8935  -8.8752  -8.8401  -8.8132
    -8.7924  -8.7800  -7.5769  -7.5757  -6.9984  -6.9974  -6.8115  -6.8084
    -6.8053  -6.8045  -6.8009  -6.7963  -6.7719  -6.7712  -6.7669  -6.7636
    -6.6989  -6.6978  -5.4660  -5.3050  -5.2890  -5.2487  -5.2411  -5.1246
    -5.0296  -4.8796  -4.8602  -4.7279  -4.6520  -4.6481  -4.6310  -4.6282
    -4.6236  -4.6034  -3.6983  -3.6956  -3.1523  -3.1512  -2.6453  -2.6412
    -2.6300  -2.6260  -2.6210  -2.6169  -2.6070  -2.6049  -2.5738  -2.5713
    -2.5642  -2.5608  -0.5771  -0.5447  -0.4982  -0.4562  -0.3719  -0.3112
    -0.2836  -0.2137  -0.1983  -0.1172  -0.0657  -0.0241   0.0912   0.0992
     0.2086   0.2263   0.3133   0.3446   0.4010   0.4310   0.4372   0.4752
     0.5392   0.5405   0.5865   0.5907   0.7291   0.7374   0.7579   0.7823
     0.8261   0.8592   0.9049   0.9313   0.9319   0.9470   1.0002   1.0281
     1.0664   1.0804   1.1357   1.1469   1.1871   1.2117   1.2728   1.2760
     1.3300   1.3399   1.3662   1.3690   1.4181   1.4328   1.4610   1.4744
     1.5103   1.5218   1.5496   1.5703   1.5945   1.6039   1.6116   1.6302
     1.6799   1.6817   1.7214   1.7456   1.7733   1.7964   1.8021   1.8292
     1.8520   1.8552   1.9424   1.9674

          k =-0.3750-0.1243 0.1205 (296505 PWs)   bands (ev):

   -17.7322 -17.7317 -17.3694 -17.3677 -17.3571 -17.3568 -17.2877 -17.2873
   -15.5907 -15.5881 -14.0959 -14.0952 -14.0869 -14.0857 -14.0816 -14.0807
   -14.0746 -14.0735 -14.0725 -14.0713 -14.0700 -14.0685 -14.0570 -14.0557
   -14.0556 -14.0548 -14.0547 -14.0541 -14.0527 -14.0509 -14.0495 -14.0494
   -14.0479 -14.0460 -14.0390 -14.0379 -14.0368 -14.0365 -14.0352 -14.0348
   -14.0347 -14.0346 -14.0334 -14.0332 -14.0328 -14.0309 -14.0193 -14.0180
   -14.0170 -14.0166 -10.3151 -10.3136 -10.3008 -10.2997 -10.2822 -10.2817
    -9.5836  -9.5805  -9.4654  -9.4264  -9.3210  -9.2781  -9.2651  -9.2197
    -9.1769  -9.1723  -9.1293  -9.1239  -9.0577  -9.0294  -8.9848  -8.9726
    -8.9487  -8.9412  -8.9321  -8.9306  -8.8558  -8.8447  -8.8325  -8.8087
    -8.8030  -8.7852  -7.5771  -7.5760  -6.9985  -6.9975  -6.8138  -6.8103
    -6.8078  -6.8071  -6.7991  -6.7959  -6.7694  -6.7687  -6.7669  -6.7638
    -6.6972  -6.6956  -5.5703  -5.3861  -5.2494  -5.2473  -5.1642  -5.1401
    -4.9889  -4.9614  -4.7658  -4.6745  -4.6545  -4.6480  -4.6285  -4.6275
    -4.6216  -4.5361  -3.6982  -3.6954  -3.1524  -3.1511  -2.6568  -2.6487
    -2.6323  -2.6261  -2.6165  -2.6157  -2.6102  -2.6091  -2.5683  -2.5669
    -2.5617  -2.5600  -0.7212  -0.7049  -0.6169  -0.5800  -0.5654  -0.5022
    -0.3897  -0.3420  -0.2637  -0.2152  -0.1230  -0.0527   0.0658   0.1550
     0.2272   0.3700   0.4148   0.4405   0.4478   0.5184   0.5194   0.5694
     0.5978   0.6280   0.6744   0.7266   0.7644   0.7827   0.8443   0.8554
     0.8850   0.9683   0.9997   1.0095   1.0448   1.0860   1.1127   1.1138
     1.1492   1.1615   1.1872   1.1890   1.2037   1.2239   1.2276   1.2625
     1.2983   1.3114   1.3238   1.3443   1.3573   1.3657   1.3974   1.4092
     1.4487   1.4499   1.5255   1.5440   1.5684   1.5749   1.6308   1.6563
     1.6842   1.6857   1.7123   1.7606   1.7845   1.8393   1.8409   1.8619
     1.8911   1.9025   1.9691   2.0468

          k =-0.3750 0.1243-0.1205 (296505 PWs)   bands (ev):

   -17.7322 -17.7317 -17.3694 -17.3677 -17.3571 -17.3568 -17.2877 -17.2873
   -15.5907 -15.5881 -14.0959 -14.0952 -14.0869 -14.0857 -14.0816 -14.0807
   -14.0746 -14.0735 -14.0725 -14.0713 -14.0700 -14.0685 -14.0570 -14.0557
   -14.0556 -14.0548 -14.0547 -14.0541 -14.0527 -14.0509 -14.0495 -14.0494
   -14.0479 -14.0460 -14.0390 -14.0379 -14.0368 -14.0365 -14.0352 -14.0348
   -14.0347 -14.0346 -14.0334 -14.0332 -14.0328 -14.0309 -14.0193 -14.0180
   -14.0170 -14.0166 -10.3156 -10.3142 -10.3001 -10.2992 -10.2830 -10.2809
    -9.5824  -9.5813  -9.4722  -9.4193  -9.3116  -9.2911  -9.2631  -9.2196
    -9.1815  -9.1650  -9.1356  -9.1198  -9.0623  -9.0244  -8.9867  -8.9704
    -8.9469  -8.9369  -8.9353  -8.9309  -8.8624  -8.8470  -8.8311  -8.8080
    -8.8027  -8.7821  -7.5777  -7.5754  -6.9986  -6.9975  -6.8134  -6.8106
    -6.8081  -6.8068  -6.7998  -6.7950  -6.7695  -6.7685  -6.7670  -6.7640
    -6.6969  -6.6958  -5.5707  -5.3857  -5.2496  -5.2475  -5.1643  -5.1389
    -4.9888  -4.9629  -4.7700  -4.6692  -4.6554  -4.6484  -4.6293  -4.6269
    -4.6161  -4.5406  -3.6981  -3.6953  -3.1524  -3.1511  -2.6569  -2.6488
    -2.6295  -2.6244  -2.6191  -2.6170  -2.6118  -2.6086  -2.5677  -2.5671
    -2.5619  -2.5593  -0.7240  -0.7034  -0.6121  -0.5877  -0.5733  -0.4969
    -0.3789  -0.3457  -0.2621  -0.2256  -0.1157  -0.0436   0.0682   0.1558
     0.2291   0.3648   0.4234   0.4320   0.4415   0.5082   0.5257   0.5661
     0.6091   0.6163   0.6680   0.7332   0.7597   0.7890   0.8426   0.8440
     0.8913   0.9513   0.9849   1.0300   1.0593   1.0622   1.1082   1.1259
     1.1458   1.1605   1.1784   1.1863   1.2146   1.2262   1.2537   1.2761
     1.2928   1.3172   1.3243   1.3316   1.3522   1.3643   1.4014   1.4244
     1.4374   1.4600   1.5335   1.5483   1.5644   1.5880   1.6179   1.6485
     1.6620   1.6908   1.7239   1.7577   1.7744   1.8408   1.8431   1.8707
     1.8768   1.9135   1.9552   2.0584

          k = 0.3750-0.1243-0.1205 (296505 PWs)   bands (ev):

   -17.7322 -17.7317 -17.3694 -17.3677 -17.3571 -17.3568 -17.2877 -17.2873
   -15.5907 -15.5881 -14.0959 -14.0952 -14.0869 -14.0857 -14.0816 -14.0807
   -14.0746 -14.0735 -14.0725 -14.0713 -14.0700 -14.0685 -14.0570 -14.0557
   -14.0556 -14.0548 -14.0547 -14.0541 -14.0527 -14.0509 -14.0495 -14.0494
   -14.0479 -14.0460 -14.0390 -14.0379 -14.0368 -14.0365 -14.0352 -14.0348
   -14.0347 -14.0346 -14.0334 -14.0332 -14.0328 -14.0309 -14.0193 -14.0180
   -14.0170 -14.0166 -10.3156 -10.3142 -10.3001 -10.2992 -10.2830 -10.2809
    -9.5825  -9.5812  -9.4723  -9.4193  -9.3116  -9.2908  -9.2623  -9.2207
    -9.1833  -9.1624  -9.1349  -9.1215  -9.0619  -9.0236  -8.9872  -8.9713
    -8.9417  -8.9405  -8.9401  -8.9272  -8.8619  -8.8473  -8.8312  -8.8078
    -8.8030  -8.7821  -7.5777  -7.5754  -6.9986  -6.9975  -6.8133  -6.8108
    -6.8086  -6.8062  -6.7993  -6.7954  -6.7697  -6.7680  -6.7671  -6.7643
    -6.6969  -6.6958  -5.5706  -5.3857  -5.2496  -5.2475  -5.1645  -5.1388
    -4.9889  -4.9628  -4.7698  -4.6693  -4.6555  -4.6483  -4.6292  -4.6269
    -4.6163  -4.5405  -3.6981  -3.6953  -3.1524  -3.1511  -2.6570  -2.6485
    -2.6301  -2.6249  -2.6181  -2.6170  -2.6111  -2.6095  -2.5681  -2.5667
    -2.5626  -2.5586  -0.7241  -0.7030  -0.6120  -0.5896  -0.5713  -0.4972
    -0.3790  -0.3459  -0.2624  -0.2252  -0.1166  -0.0430   0.0676   0.1560
     0.2294   0.3651   0.4222   0.4322   0.4432   0.5078   0.5246   0.5676
     0.6088   0.6158   0.6675   0.7329   0.7607   0.7893   0.8425   0.8447
     0.8913   0.9526   0.9827   1.0277   1.0582   1.0640   1.1103   1.1241
     1.1477   1.1608   1.1805   1.1876   1.2154   1.2243   1.2565   1.2779
     1.2927   1.3111   1.3240   1.3345   1.3498   1.3623   1.4001   1.4242
     1.4371   1.4608   1.5324   1.5483   1.5642   1.5867   1.6185   1.6477
     1.6647   1.6921   1.7233   1.7572   1.7732   1.8416   1.8447   1.8701
     1.8780   1.9118   1.9557   2.0590

          k =-0.3750-0.1243 0.3614 (296493 PWs)   bands (ev):

   -17.7322 -17.7317 -17.3694 -17.3677 -17.3571 -17.3568 -17.2877 -17.2873
   -15.5907 -15.5881 -14.0934 -14.0931 -14.0893 -14.0879 -14.0793 -14.0782
   -14.0760 -14.0746 -14.0727 -14.0726 -14.0702 -14.0690 -14.0570 -14.0557
   -14.0556 -14.0548 -14.0546 -14.0541 -14.0527 -14.0509 -14.0495 -14.0494
   -14.0479 -14.0461 -14.0390 -14.0379 -14.0368 -14.0365 -14.0352 -14.0348
   -14.0347 -14.0346 -14.0334 -14.0332 -14.0328 -14.0309 -14.0193 -14.0180
   -14.0170 -14.0166 -10.3147 -10.3137 -10.3006 -10.2998 -10.2821 -10.2818
    -9.5803  -9.5793  -9.4346  -9.3946  -9.3680  -9.3234  -9.2798  -9.2605
    -9.2084  -9.2001  -9.0519  -9.0446  -9.0222  -9.0056  -8.9952  -8.9824
    -8.9632  -8.9621  -8.9132  -8.9102  -8.8781  -8.8630  -8.8376  -8.8196
    -8.8002  -8.7916  -7.5774  -7.5764  -6.9986  -6.9976  -6.8130  -6.8103
    -6.8065  -6.8044  -6.7984  -6.7951  -6.7713  -6.7701  -6.7659  -6.7625
    -6.6989  -6.6978  -5.4569  -5.2978  -5.2587  -5.2486  -5.2443  -5.0983
    -5.0582  -4.8968  -4.8849  -4.7438  -4.6503  -4.6453  -4.6305  -4.6285
    -4.6270  -4.6063  -3.6985  -3.6957  -3.1523  -3.1512  -2.6475  -2.6449
    -2.6345  -2.6261  -2.6232  -2.6180  -2.6077  -2.6067  -2.5685  -2.5670
    -2.5621  -2.5598  -0.5459  -0.5113  -0.4506  -0.4405  -0.3277  -0.3020
    -0.2761  -0.2334  -0.1953  -0.1715  -0.0746  -0.0517   0.0532   0.0733
     0.2507   0.2673   0.3265   0.3317   0.3870   0.4114   0.4649   0.4809
     0.4945   0.5369   0.5910   0.6186   0.7355   0.7394   0.8001   0.8210
     0.8630   0.8651   0.9440   0.9504   0.9798   0.9895   1.0011   1.0200
     1.0763   1.0877   1.1106   1.1165   1.1680   1.1848   1.2340   1.2568
     1.3230   1.3245   1.3442   1.3589   1.3829   1.3906   1.4350   1.4398
     1.5073   1.5309   1.5334   1.5593   1.5808   1.5845   1.6178   1.6408
     1.6689   1.6816   1.6984   1.7319   1.7824   1.7880   1.8132   1.8272
     1.8430   1.8500   1.9170   1.9389

          k =-0.3750 0.1243-0.3614 (296493 PWs)   bands (ev):

   -17.7322 -17.7317 -17.3694 -17.3677 -17.3571 -17.3568 -17.2877 -17.2873
   -15.5907 -15.5881 -14.0934 -14.0931 -14.0893 -14.0879 -14.0793 -14.0782
   -14.0760 -14.0746 -14.0727 -14.0726 -14.0702 -14.0690 -14.0570 -14.0557
   -14.0556 -14.0548 -14.0546 -14.0541 -14.0527 -14.0509 -14.0495 -14.0494
   -14.0479 -14.0461 -14.0390 -14.0379 -14.0368 -14.0365 -14.0352 -14.0348
   -14.0347 -14.0346 -14.0334 -14.0332 -14.0328 -14.0309 -14.0193 -14.0180
   -14.0170 -14.0166 -10.3153 -10.3143 -10.3000 -10.2992 -10.2825 -10.2815
    -9.5799  -9.5792  -9.4403  -9.3897  -9.3702  -9.3195  -9.2713  -9.2681
    -9.2066  -9.2041  -9.0530  -9.0460  -9.0210  -9.0057  -8.9949  -8.9839
    -8.9635  -8.9580  -8.9185  -8.9051  -8.8802  -8.8586  -8.8434  -8.8242
    -8.7967  -8.7884  -7.5775  -7.5762  -6.9987  -6.9976  -6.8130  -6.8102
    -6.8059  -6.8046  -6.7990  -6.7945  -6.7716  -6.7702  -6.7658  -6.7625
    -6.6989  -6.6978  -5.4570  -5.2968  -5.2598  -5.2486  -5.2440  -5.0989
    -5.0587  -4.8972  -4.8857  -4.7394  -4.6518  -4.6469  -4.6299  -4.6291
    -4.6243  -4.6084  -3.6983  -3.6956  -3.1523  -3.1512  -2.6478  -2.6447
    -2.6312  -2.6286  -2.6213  -2.6188  -2.6098  -2.6074  -2.5683  -2.5664
    -2.5616  -2.5601  -0.5483  -0.5173  -0.4473  -0.4435  -0.3212  -0.2965
    -0.2752  -0.2432  -0.1925  -0.1762  -0.0622  -0.0498   0.0611   0.0713
     0.2439   0.2736   0.3238   0.3338   0.3908   0.4001   0.4600   0.4724
     0.5011   0.5287   0.6036   0.6088   0.7342   0.7462   0.8077   0.8266
     0.8573   0.8873   0.9095   0.9145   0.9546   0.9851   1.0284   1.0351
     1.0754   1.0857   1.0967   1.1155   1.1915   1.2088   1.2412   1.2507
     1.3271   1.3286   1.3473   1.3509   1.3854   1.3926   1.4375   1.4403
     1.5120   1.5253   1.5303   1.5399   1.5992   1.6084   1.6258   1.6407
     1.6640   1.6657   1.7065   1.7444   1.7746   1.7783   1.8035   1.8126
     1.8265   1.8394   1.9325   1.9560

          k = 0.3750-0.1243-0.3614 (296493 PWs)   bands (ev):

   -17.7322 -17.7317 -17.3694 -17.3677 -17.3571 -17.3568 -17.2877 -17.2873
   -15.5907 -15.5881 -14.0934 -14.0931 -14.0893 -14.0879 -14.0793 -14.0782
   -14.0760 -14.0746 -14.0727 -14.0726 -14.0702 -14.0690 -14.0570 -14.0557
   -14.0556 -14.0548 -14.0546 -14.0542 -14.0527 -14.0509 -14.0495 -14.0494
   -14.0479 -14.0461 -14.0390 -14.0379 -14.0368 -14.0365 -14.0352 -14.0348
   -14.0347 -14.0346 -14.0334 -14.0332 -14.0328 -14.0309 -14.0193 -14.0180
   -14.0170 -14.0166 -10.3153 -10.3143 -10.3000 -10.2992 -10.2824 -10.2816
    -9.5801  -9.5790  -9.4405  -9.3897  -9.3700  -9.3192  -9.2709  -9.2687
    -9.2080  -9.2029  -9.0537  -9.0454  -9.0203  -9.0017  -8.9981  -8.9859
    -8.9607  -8.9598  -8.9211  -8.9019  -8.8806  -8.8587  -8.8437  -8.8239
    -8.7969  -8.7883  -7.5775  -7.5762  -6.9987  -6.9976  -6.8130  -6.8103
    -6.8067  -6.8040  -6.7983  -6.7951  -6.7716  -6.7701  -6.7657  -6.7627
    -6.6989  -6.6978  -5.4569  -5.2975  -5.2593  -5.2487  -5.2437  -5.0991
    -5.0588  -4.8983  -4.8841  -4.7398  -4.6519  -4.6468  -4.6300  -4.6289
    -4.6246  -4.6082  -3.6983  -3.6956  -3.1523  -3.1512  -2.6480  -2.6440
    -2.6327  -2.6272  -2.6223  -2.6180  -2.6090  -2.6080  -2.5686  -2.5660
    -2.5627  -2.5592  -0.5490  -0.5159  -0.4481  -0.4426  -0.3222  -0.2964
    -0.2746  -0.2411  -0.1927  -0.1790  -0.0643  -0.0487   0.0598   0.0724
     0.2462   0.2747   0.3232   0.3342   0.3920   0.3979   0.4585   0.4723
     0.5010   0.5312   0.6041   0.6073   0.7351   0.7464   0.8081   0.8257
     0.8577   0.8877   0.9070   0.9134   0.9541   0.9872   1.0303   1.0350
     1.0755   1.0855   1.0985   1.1129   1.1949   1.2072   1.2411   1.2515
     1.3232   1.3301   1.3443   1.3519   1.3851   1.3924   1.4378   1.4394
     1.5136   1.5253   1.5315   1.5391   1.5959   1.6069   1.6247   1.6428
     1.6646   1.6686   1.7062   1.7458   1.7725   1.7762   1.8058   1.8157
     1.8286   1.8351   1.9327   1.9563

          k =-0.3750-0.3730 0.1205 (296540 PWs)   bands (ev):

   -17.7322 -17.7317 -17.3694 -17.3677 -17.3571 -17.3568 -17.2877 -17.2873
   -15.5907 -15.5881 -14.0957 -14.0951 -14.0867 -14.0855 -14.0813 -14.0806
   -14.0736 -14.0727 -14.0720 -14.0717 -14.0704 -14.0690 -14.0573 -14.0562
   -14.0557 -14.0551 -14.0548 -14.0546 -14.0528 -14.0510 -14.0496 -14.0495
   -14.0480 -14.0461 -14.0390 -14.0379 -14.0368 -14.0365 -14.0352 -14.0348
   -14.0347 -14.0346 -14.0334 -14.0332 -14.0328 -14.0309 -14.0193 -14.0180
   -14.0170 -14.0166 -10.3148 -10.3137 -10.2998 -10.2979 -10.2847 -10.2821
[...]
    -9.2491  -9.2383  -9.0550  -9.0452  -9.0312  -9.0176  -8.9661  -8.9642
    -8.9564  -8.9474  -8.9092  -8.8934  -8.8756  -8.8656  -8.8433  -8.8241
    -8.8057  -8.7968  -7.5781  -7.5770  -7.0003  -6.9967  -6.8107  -6.8082
    -6.8056  -6.8032  -6.7977  -6.7955  -6.7705  -6.7683  -6.7656  -6.7623
    -6.6970  -6.6963  -5.3519  -5.2545  -5.2513  -5.2006  -5.1820  -5.1495
    -5.0318  -5.0079  -4.9931  -4.8483  -4.6501  -4.6487  -4.6290  -4.6238
    -4.6200  -4.6176  -3.6947  -3.6913  -3.1536  -3.1533  -2.6449  -2.6422
    -2.6263  -2.6245  -2.6179  -2.6156  -2.6092  -2.6076  -2.5693  -2.5667
    -2.5624  -2.5617  -0.3609  -0.3583  -0.3382  -0.3067  -0.2404  -0.2094
    -0.1688  -0.1580  -0.1347  -0.0818  -0.0666  -0.0398   0.0920   0.1177
     0.1989   0.2541   0.2998   0.3090   0.3295   0.3458   0.3785   0.4093
     0.4600   0.4750   0.5156   0.5169   0.7207   0.7704   0.7957   0.8028
     0.8281   0.8537   0.8847   0.9000   0.9389   0.9400   0.9749   0.9991
     1.0273   1.0477   1.0763   1.0870   1.1625   1.1748   1.2030   1.2229
     1.2542   1.2663   1.3005   1.3202   1.3833   1.3871   1.4036   1.4272
     1.4579   1.4640   1.5181   1.5239   1.5430   1.5595   1.5921   1.6064
     1.6529   1.6713   1.7039   1.7338   1.7760   1.7853   1.8053   1.8175
     1.8423   1.8639   1.9168   1.9397

          k = 0.3750-0.3730-0.3613 (296451 PWs)   bands (ev):

   -17.7338 -17.7335 -17.3685 -17.3683 -17.3560 -17.3510 -17.2850 -17.2824
   -15.5921 -15.5907 -14.0945 -14.0940 -14.0903 -14.0891 -14.0800 -14.0783
   -14.0761 -14.0748 -14.0737 -14.0735 -14.0718 -14.0707 -14.0584 -14.0565
   -14.0563 -14.0561 -14.0558 -14.0556 -14.0540 -14.0526 -14.0508 -14.0507
   -14.0491 -14.0477 -14.0402 -14.0377 -14.0377 -14.0375 -14.0364 -14.0359
   -14.0358 -14.0345 -14.0344 -14.0340 -14.0338 -14.0325 -14.0204 -14.0178
   -14.0177 -14.0177 -10.3131 -10.3124 -10.2960 -10.2934 -10.2816 -10.2790
    -9.5825  -9.5800  -9.4084  -9.3677  -9.3480  -9.3219  -9.2931  -9.2907
    -9.2500  -9.2382  -9.0559  -9.0448  -9.0307  -9.0161  -8.9676  -8.9656
    -8.9540  -8.9485  -8.9102  -8.8911  -8.8768  -8.8653  -8.8434  -8.8236
    -8.8062  -8.7967  -7.5780  -7.5770  -7.0003  -6.9967  -6.8108  -6.8082
    -6.8057  -6.8029  -6.7976  -6.7957  -6.7706  -6.7682  -6.7651  -6.7629
    -6.6971  -6.6963  -5.3518  -5.2546  -5.2514  -5.2017  -5.1809  -5.1493
    -5.0331  -5.0068  -4.9927  -4.8486  -4.6501  -4.6487  -4.6290  -4.6237
    -4.6200  -4.6176  -3.6947  -3.6913  -3.1536  -3.1533  -2.6448  -2.6421
    -2.6261  -2.6249  -2.6181  -2.6156  -2.6089  -2.6077  -2.5697  -2.5661
    -2.5634  -2.5608  -0.3591  -0.3579  -0.3381  -0.3080  -0.2415  -0.2081
    -0.1706  -0.1566  -0.1350  -0.0819  -0.0679  -0.0418   0.0933   0.1161
     0.2025   0.2547   0.3015   0.3089   0.3268   0.3494   0.3773   0.4085
     0.4571   0.4769   0.5152   0.5169   0.7200   0.7700   0.7979   0.8029
     0.8286   0.8551   0.8823   0.8987   0.9373   0.9379   0.9772   1.0020
     1.0284   1.0468   1.0753   1.0868   1.1608   1.1784   1.2045   1.2207
     1.2522   1.2674   1.3008   1.3183   1.3844   1.3864   1.4030   1.4266
     1.4574   1.4653   1.5173   1.5223   1.5436   1.5594   1.5939   1.6063
     1.6535   1.6721   1.7033   1.7339   1.7761   1.7834   1.8056   1.8190
     1.8432   1.8631   1.9176   1.9391

     highest occupied level (ev):     2.2361

!    total energy              =  -16545.24409800 Ry
     Harris-Foulkes estimate   =  -16545.24409800 Ry
     estimated scf accuracy    <          8.3E-10 Ry

     total all-electron energy =   -677464.510967 Ry

     The total energy is the sum of the following terms:

     one-electron contribution =    -829.02374428 Ry
     hartree contribution      =     606.25362410 Ry
     xc contribution           =    -765.77163883 Ry
     ewald contribution        =   -1185.90394220 Ry
     DFT-D3 Dispersion         =      -0.65058147 Ry
     one-center paw contrib.   =  -14370.14781532 Ry

     convergence has been achieved in   7 iterations

     Forces acting on atoms (cartesian axes, Ry/au):

     atom    1 type  1   force =    -0.00009422   -0.00000413    0.00034076
     atom    2 type  1   force =    -0.00015867   -0.00014198    0.00046822
     atom    3 type  1   force =    -0.00017852   -0.00019688   -0.00005199
     atom    4 type  1   force =     0.00002283   -0.00014221    0.00004745
     atom    5 type  1   force =     0.00004700    0.00007192    0.00008336
     atom    6 type  1   force =    -0.00023758   -0.00008864    0.00008262
     atom    7 type  1   force =    -0.00022012    0.00006899    0.00040342
     atom    8 type  1   force =    -0.00008737   -0.00013227    0.00025312
     atom    9 type  2   force =    -0.00008935    0.00035865   -0.00003093
     atom   10 type  2   force =    -0.00037605   -0.00019145    0.00006768
     atom   11 type  2   force =    -0.00003795    0.00022278   -0.00070495
     atom   12 type  2   force =     0.00035722    0.00031180    0.00012660
     atom   13 type  2   force =    -0.00055683    0.00013463    0.00028759
     atom   14 type  2   force =    -0.00049278   -0.00006804   -0.00065261
     atom   15 type  2   force =     0.00026530   -0.00039388   -0.00004219
     atom   16 type  2   force =     0.00020586    0.00012088   -0.00000574
     atom   17 type  2   force =    -0.00004763   -0.00007511    0.00001715
     atom   18 type  2   force =     0.00005318   -0.00036993    0.00021504
     atom   19 type  2   force =     0.00006801    0.00010265    0.00021432
     atom   20 type  2   force =     0.00030539    0.00005345   -0.00007979
     atom   21 type  2   force =     0.00020460   -0.00027624    0.00023849
     atom   22 type  2   force =     0.00010550   -0.00029173    0.00010390
     atom   23 type  2   force =     0.00033611    0.00018384    0.00002964
     atom   24 type  2   force =     0.00033715   -0.00044945    0.00011784
     atom   25 type  2   force =     0.00017397   -0.00004826    0.00003489
     atom   26 type  2   force =    -0.00005942   -0.00012064   -0.00024882
     atom   27 type  2   force =     0.00031780    0.00035227    0.00011308
     atom   28 type  2   force =    -0.00052109   -0.00021231    0.00008804
     atom   29 type  2   force =    -0.00042889    0.00013160   -0.00036920
     atom   30 type  2   force =     0.00013609    0.00036929   -0.00009498
     atom   31 type  2   force =    -0.00044347    0.00000155   -0.00003041
     atom   32 type  2   force =    -0.00004943    0.00018307   -0.00045447
     atom   33 type  3   force =    -0.00009761    0.00123260   -0.00001849
     atom   34 type  3   force =     0.00029385    0.00002670    0.00051306
     atom   35 type  3   force =    -0.00006872    0.00092689   -0.00035261
     atom   36 type  3   force =    -0.00062586    0.00064573   -0.00044271
     atom   37 type  3   force =     0.00000389    0.00005239    0.00033643
     atom   38 type  3   force =    -0.00094376    0.00065774   -0.00026317
     atom   39 type  3   force =    -0.00005107   -0.00072114   -0.00010537
     atom   40 type  3   force =    -0.00018442    0.00052549    0.00001941
     atom   41 type  4   force =    -0.00044471   -0.00069324    0.00006794
     atom   42 type  4   force =     0.00007562   -0.00099289   -0.00001581
     atom   43 type  4   force =    -0.00112821    0.00066556    0.00003488
     atom   44 type  4   force =    -0.00056608   -0.00011810    0.00014657
     atom   45 type  4   force =     0.00008299   -0.00086439   -0.00004494
     atom   46 type  4   force =     0.00062309   -0.00094108    0.00014978
     atom   47 type  4   force =     0.00154113    0.00023507   -0.00078304
     atom   48 type  4   force =    -0.00027298    0.00087746    0.00008385
     atom   49 type  4   force =     0.00093445    0.00021716    0.00004137
     atom   50 type  4   force =     0.00094004    0.00002828    0.00003771
     atom   51 type  5   force =     0.00054740   -0.00029359   -0.00011775
     atom   52 type  5   force =     0.00008233    0.00008242    0.00000417
     atom   53 type  5   force =     0.00010340    0.00012154   -0.00004889
     atom   54 type  5   force =     0.00030258   -0.00002957   -0.00004027
     atom   55 type  5   force =    -0.00003152    0.00023306    0.00004173
     atom   56 type  5   force =    -0.00027718   -0.00005282   -0.00030010
     atom   57 type  5   force =     0.00110097   -0.00033402    0.00007319
     atom   58 type  5   force =    -0.00026184    0.00046862   -0.00015949
     atom   59 type  5   force =     0.00017965    0.00007154   -0.00029013
     atom   60 type  5   force =    -0.00003287   -0.00047653    0.00002722
     atom   61 type  5   force =     0.00036027    0.00000076   -0.00007706
     atom   62 type  5   force =     0.00043564   -0.00002775   -0.00026310
     atom   63 type  5   force =     0.00064423    0.00003637    0.00007047
     atom   64 type  5   force =     0.00012664    0.00004934    0.00007013
     atom   65 type  5   force =     0.00020024   -0.00002796    0.00045147
     atom   66 type  5   force =    -0.00078077    0.00000256   -0.00014458
     atom   67 type  5   force =    -0.00012202    0.00003242   -0.00001731
     atom   68 type  5   force =     0.00062082   -0.00014949    0.00045486
     atom   69 type  5   force =     0.00032101   -0.00017722   -0.00026071
     atom   70 type  5   force =    -0.00040586    0.00058922   -0.00000121
     atom   71 type  5   force =    -0.00026523    0.00000009    0.00013134
     atom   72 type  5   force =    -0.00007625   -0.00004351    0.00021869
     atom   73 type  5   force =     0.00030562   -0.00070219    0.00005911
     atom   74 type  5   force =     0.00033598   -0.00006917   -0.00015254
     atom   75 type  5   force =     0.00023242   -0.00005015    0.00010481
     atom   76 type  5   force =    -0.00029297    0.00057726    0.00003178
     atom   77 type  5   force =    -0.00031835   -0.00006478   -0.00002255
     atom   78 type  5   force =    -0.00054948   -0.00015224   -0.00033036
     atom   79 type  5   force =    -0.00011101   -0.00003037    0.00000901
     atom   80 type  5   force =    -0.00024171    0.00023885    0.00060834
     atom   81 type  5   force =    -0.00052336   -0.00044407   -0.00003908
     atom   82 type  5   force =     0.00018537   -0.00003106    0.00014089
     atom   83 type  5   force =     0.00023081   -0.00006986    0.00057737
     atom   84 type  5   force =    -0.00025300    0.00024199   -0.00014219
     atom   85 type  5   force =    -0.00004707    0.00011204   -0.00023579
     atom   86 type  5   force =    -0.00035197    0.00016775    0.00004767
     atom   87 type  5   force =     0.00071517   -0.00011647   -0.00009104
     atom   88 type  5   force =    -0.00022960    0.00034877   -0.00029897
     atom   89 type  5   force =     0.00019686   -0.00017474    0.00014346
     atom   90 type  5   force =    -0.00031591   -0.00002272    0.00015695
     atom   91 type  5   force =     0.00046853   -0.00006861   -0.00012621
     atom   92 type  5   force =     0.00007148   -0.00018860   -0.00001964
     atom   93 type  5   force =     0.00001815   -0.00032914    0.00003801
     atom   94 type  5   force =    -0.00067440    0.00037599   -0.00015896
     atom   95 type  5   force =     0.00013011   -0.00072900   -0.00000447
     atom   96 type  5   force =    -0.00072159   -0.00011937   -0.00009026

     Total force =     0.003613     Total SCF correction =     0.000049


     Computing stress (Cartesian axis) and pressure

          total   stress  (Ry/bohr**3)                   (kbar)     P=   -0.07
  -0.00000068   0.00000815  -0.00000007         -0.10      1.20     -0.01
   0.00000815  -0.00000073   0.00000023          1.20     -0.11      0.03
  -0.00000007   0.00000023  -0.00000006         -0.01      0.03     -0.01


     number of scf cycles    =   4
     number of bfgs steps    =   3

     enthalpy old            =  -16545.2440783511 Ry
     enthalpy new            =  -16545.2440980041 Ry

     CASE: enthalpy_new < enthalpy_old

     new trust radius        =       0.0053846545 bohr
     new conv_thr            =       0.0000000010 Ry

     new unit-cell volume =  13357.22998 a.u.^3 (  1979.33724 Ang^3 )
     density =      4.18785 g/cm^3

CELL_PARAMETERS (angstrom)
  12.379608421   0.000000000   0.000000000
   0.000000000  12.444426960   0.000000000
   0.000000000   0.000000000  12.848072715

ATOMIC_POSITIONS (crystal)
Pb       0.001617941  -0.007384325   0.003136925    0   0   1
Pb       0.001995943  -0.007051119   0.502756575    0   0   1
Pb      -0.001381178   0.495959353   0.000725626    0   0   0
Pb      -0.001422631   0.495798285   0.505393757    0   0   0
Pb       0.498548981  -0.004357303   0.005400956    0   0   0
Pb       0.498609759  -0.004027774   0.500653992    0   0   0
Pb       0.502025738   0.492752531   0.002557617    0   0   0
Pb       0.501591505   0.492732453   0.502972084    0   0   0
I        0.249676313   0.069941554   0.006294453    0   0   0
I       -0.057722403   0.239856978  -0.024907232    1   0   0
I       -0.022644968   0.013941883   0.253534571    0   0   1
I        0.249267125   0.070912202   0.501503151    1   1   0
I       -0.058424750   0.239925525   0.528917047    1   0   0
I        0.005845632  -0.020200780   0.753494927    1   0   1
I        0.250135965   0.444593575   0.018950562    1   1   0
I        0.072807061   0.740230950  -0.013711334    0   0   0
I        0.005049637   0.516966218   0.253089928    0   0   0
I        0.250246370   0.444295404   0.488005187    0   0   0
I        0.072803698   0.740377375   0.518961395    0   0   0
I        0.022706801   0.481538026   0.753044433    1   0   0
I        0.750227899  -0.055920152  -0.011790144    0   0   1
I        0.572747614   0.240699580   0.019142425    0   0   0
I        0.522621674  -0.018517940   0.253121316    1   0   0
I        0.750024479  -0.055274476   0.518877678    1   1   0
I        0.572733171   0.240351170   0.486230937    0   0   0
I        0.505064804   0.016938979   0.753349221    0   0   0
I        0.749376382   0.570761046   0.001343721    1   1   0
I        0.441740036   0.740157648   0.029250494    1   1   0
I        0.505834239   0.479599827   0.253240847    1   0   1
I        0.749554721   0.569950114   0.506392959    0   0   0
I        0.442293636   0.739832990   0.475255444    1   0   0
I        0.477282602   0.514107596   0.753290083    0   0   1
C        0.252289770   0.286998871   0.253484970    0   1   0
C        0.287302839   0.277567849   0.753924174    0   0   0
C        0.237529199   0.793622586   0.252789776    0   0   1
C        0.291954860   0.796814346   0.752041528    0   0   0
C        0.791988575   0.296713563   0.251932768    0   0   1
C        0.737487100   0.293452174   0.752827834    0   0   0
C        0.787443263   0.777608673   0.254128354    1   0   0
C        0.752459565   0.786902010   0.753442248    0   1   0
N        0.151973653   0.252574368   0.253367283    0   1   0
N        0.339366677   0.226650114   0.253293352    1   1   0
N        0.194212119   0.201059977   0.754791790    1   0   0
N        0.259125707   0.675467213   0.252111397    1   0   1
N        0.233023487   0.692109234   0.752452280    0   0   0
N        0.733054762   0.191997264   0.252525371    0   0   0
N        0.758971262   0.175279110   0.752234093    0   0   0
N        0.694545930   0.700733969   0.254550855    1   0   0
N        0.652114471   0.752512057   0.753330995    1   1   0
N        0.839514785   0.726556221   0.753164602    1   0   0
H        0.264722393   0.373625109   0.253818620    0   1   0
H        0.129882817   0.173299849   0.253208910    0   0   0
H        0.091801416   0.308743723   0.253643821    0   1   0
H        0.337936551   0.144802367   0.252998534    0   0   0
H        0.412911013   0.263500529   0.253350561    0   0   0
H        0.195411313   0.152457484   0.688861426    0   1   0
H        0.121254210   0.241453958   0.755956306    0   1   0
H        0.197185636   0.151790878   0.820317239    0   0   0
H        0.281137645   0.327955718   0.684435747    0   1   0
H        0.362234575   0.230922857   0.752435711    1   0   0
H        0.283337755   0.326808814   0.824365684    0   0   0
H        0.302914604   0.654351683   0.186398722    0   0   0
H        0.187865133   0.630855346   0.252465913    0   0   0
H        0.304145644   0.653727102   0.316862059    1   0   0
H        0.191309885   0.813759817   0.182854313    1   0   0
H        0.315137167   0.835836704   0.252847390    0   1   0
H        0.191762551   0.813029754   0.323158805    0   1   0
H        0.183641815   0.685716683   0.687014491    0   0   1
H        0.183937363   0.686093623   0.818094708    0   0   0
H        0.286778516   0.627925318   0.752560168    1   0   0
H        0.342079218   0.800381472   0.681972925    0   0   0
H        0.341845080   0.801134582   0.822192907    0   0   0
H        0.232517774   0.862032878   0.751594077    1   0   0
H        0.683589745   0.185508535   0.187215889    0   0   0
H        0.684031096   0.186024466   0.318194600    0   0   0
H        0.786767377   0.127797183   0.252639894    1   0   0
H        0.842047441   0.300229688   0.181816070    0   0   0
H        0.841997540   0.301137834   0.322057747    0   0   1
H        0.732506517   0.361799515   0.251495308    1   1   0
H        0.802705853   0.154049294   0.686456007
H        0.687815505   0.130673413   0.752843099    1   0   0
H        0.804140004   0.153662870   0.816918968    0   0   0
H        0.691121445   0.313623861   0.682963346    1   1   0
H        0.815092970   0.335563409   0.752625857    0   0   1
H        0.691901587   0.312878425   0.823298966    0   0   0
H        0.696192281   0.652149788   0.188562916    0   0   0
H        0.621458877   0.740860695   0.255491092    0   1   0
H        0.697416261   0.651485367   0.320093124    0   0   0
H        0.781386099   0.828024790   0.184599252    0   0   0
H        0.862475179   0.731018053   0.252874365    0   1   0
H        0.782952112   0.826781072   0.324588961    0   0   0
H        0.765147965   0.873510335   0.753835450    1   0   0
H        0.629935927   0.673283046   0.753052545    0   0   0
H        0.592081415   0.808755155   0.753784342    0   0   0
H        0.838172576   0.644732305   0.752780604    0   0   0
H        0.913090576   0.763439484   0.753445481    0   0   0



     Writing output data file 025FA2_vcrelax14.save/
     NEW-OLD atomic charge density approx. for the potential
     extrapolated charge  407.99449, renormalised to  408.00000

     total cpu time spent up to now is   138373.4 secs

     Self-consistent Calculation

     iteration #  1     ecut=   120.00 Ry     beta= 0.70
     Davidson diagonalization with overlap
     ethr =  1.00E-06,  avg # of iterations =  3.0

     Threshold (ethr) on eigenvalues was too large:
     Diagonalizing with lowered threshold

     Davidson diagonalization with overlap
     ethr =  5.62E-09,  avg # of iterations =  3.7

     total cpu time spent up to now is   146458.6 secs

     total energy              =  -16545.24410754 Ry
     Harris-Foulkes estimate   =  -16545.25192787 Ry
     estimated scf accuracy    <       0.00002309 Ry

     iteration #  2     ecut=   120.00 Ry     beta= 0.70
     Davidson diagonalization with overlap
     ethr =  5.66E-09,  avg # of iterations =  2.4

     total cpu time spent up to now is   150222.1 secs

     total energy              =  -16545.24411747 Ry
     Harris-Foulkes estimate   =  -16545.24411550 Ry
     estimated scf accuracy    <       0.00000484 Ry

     iteration #  3     ecut=   120.00 Ry     beta= 0.70
     Davidson diagonalization with overlap
     ethr =  1.19E-09,  avg # of iterations =  2.2

     total cpu time spent up to now is   154221.3 secs

     total energy              =  -16545.24411864 Ry
     Harris-Foulkes estimate   =  -16545.24411815 Ry
     estimated scf accuracy    <       0.00000243 Ry

     iteration #  4     ecut=   120.00 Ry     beta= 0.70
     Davidson diagonalization with overlap
