
     Program PWSCF v.6.4 starts on  8Jul2020 at 19:30:27 

     This program is part of the open-source Quantum ESPRESSO suite
     for quantum simulation of materials; please cite
         "P. Giannozzi et al., J. Phys.:Condens. Matter 21 395502 (2009);
         "P. Giannozzi et al., J. Phys.:Condens. Matter 29 465901 (2017);
          URL http://www.quantum-espresso.org", 
     in publications or presentations arising from this work. More details at
     http://www.quantum-espresso.org/quote

     Parallel version (MPI), running on    32 processors

     MPI processes distributed on     1 nodes
     R & G space division:  proc/nbgrp/npool/nimage =      32
     Waiting for input...
     Reading input from standard input

     Current dimensions of program PWSCF are:
     Max number of different atomic species (ntypx) = 10
     Max number of k-points (npk) =  40000
     Max angular momentum in pseudopotentials (lmaxx) =  3
               file Pb.pbe-dn-kjpaw_psl.1.0.0.UPF: wavefunction(s)  6S 6P 5D renormalized
               file I.pbe-n-kjpaw_psl.1.0.0.UPF: wavefunction(s)  5S renormalized
               file C.pbe-n-kjpaw_psl.1.0.0.UPF: wavefunction(s)  2S 2P renormalized
               file N.pbe-n-kjpaw_psl.1.0.0.UPF: wavefunction(s)  2S renormalized
               file H.pbe-kjpaw_psl.1.0.0.UPF: wavefunction(s)  1S renormalized

     --------------------------------------------
     Parameters for DFT-D3 Dispersion Correction:
     --------------------------------------------
       Reference C6 values for interpolation: 

         atom   Coordination number   C6
         H          0.912             6.05
         H          0.000            15.18
         C          0.000            98.23
         C          0.987            86.49
         C          1.998            58.72
         C          2.999            51.56
         C          3.984            36.41
         N          0.000            50.54
         N          0.994            44.25
         N          2.014            39.35
         N          2.990            31.16
         I          0.000           703.93
         I          0.997           717.00
         Pb         0.000          1477.63
         Pb         0.938          1266.00
         Pb         1.936          1088.91
         Pb         2.908          1048.37
         Pb         3.910           910.57

       Values used:

         atom   Coordination number  R0_AB[au]  C6      C8
         Pb         4.833            4.041    910.57 144158.34
         Pb         4.828            4.041    910.57 144158.35
         Pb         4.845            4.041    910.57 144158.32
         Pb         4.856            4.041    910.57 144158.31
         Pb         4.851            4.041    910.57 144158.31
         Pb         4.846            4.041    910.57 144158.32
         Pb         4.831            4.041    910.57 144158.35
         Pb         4.839            4.041    910.57 144158.33
         I          1.930            3.532    717.00  65855.99
         I          1.962            3.532    717.00  65856.00
         I          1.903            3.532    717.00  65855.99
         I          1.920            3.532    717.00  65855.99
         I          1.976            3.532    717.00  65856.00
         I          1.997            3.532    717.00  65856.00
         I          2.009            3.532    717.00  65856.00
         I          1.950            3.532    717.00  65856.00
         I          1.967            3.532    717.00  65856.00
         I          2.016            3.532    717.00  65856.00
         I          1.928            3.532    717.00  65855.99
         I          2.033            3.532    717.00  65856.00
         I          2.011            3.532    717.00  65856.00
         I          1.927            3.532    717.00  65855.99
         I          2.035            3.532    717.00  65856.00
         I          2.012            3.532    717.00  65856.00
         I          1.952            3.532    717.00  65856.00
         I          1.967            3.532    717.00  65856.00
         I          1.923            3.532    717.00  65855.99
         I          1.971            3.532    717.00  65856.00
         I          2.002            3.532    717.00  65856.00
         I          1.931            3.532    717.00  65855.99
         I          1.967            3.532    717.00  65856.00
         I          1.906            3.532    717.00  65855.99
         C          3.102            2.750     50.87   1471.35
         C          4.036            2.750     36.59   1058.34
         C          4.043            2.750     36.58   1058.08
         C          4.044            2.750     36.58   1058.02
         C          4.045            2.750     36.58   1058.00
         C          4.043            2.750     36.58   1058.07
         C          4.036            2.750     36.59   1058.32
         C          3.101            2.750     50.88   1471.46
         N          3.096            2.478     31.24    689.11
         N          3.103            2.478     31.23    689.03
         N          4.052            2.478     31.16    687.49
         N          4.048            2.478     31.16    687.49
         N          4.060            2.478     31.16    687.49
         N          4.060            2.478     31.16    687.49
         N          4.048            2.478     31.16    687.49
         N          4.053            2.478     31.16    687.49
         N          3.096            2.478     31.24    689.11
         N          3.102            2.478     31.23    689.04
         H          1.029            2.062      6.16     74.43
         H          1.037            2.062      6.15     74.36
         H          1.032            2.062      6.15     74.40
         H          1.028            2.062      6.16     74.44
         H          1.044            2.062      6.15     74.30
         H          1.052            2.062      6.14     74.24
         H          1.015            2.062      6.17     74.56
         H          1.060            2.062      6.14     74.18
         H          1.015            2.062      6.17     74.56
         H          1.007            2.062      6.17     74.64
         H          1.015            2.062      6.17     74.56
         H          1.024            2.062      6.16     74.47
         H          1.046            2.062      6.15     74.29
         H          1.025            2.062      6.16     74.47
         H          1.011            2.062      6.17     74.60
         H          1.017            2.062      6.17     74.54
         H          1.012            2.062      6.17     74.59
         H          1.063            2.062      6.13     74.16
         H          1.067            2.062      6.13     74.13
         H          1.025            2.062      6.16     74.46
         H          1.015            2.062      6.17     74.56
         H          1.016            2.062      6.17     74.55
         H          1.010            2.062      6.17     74.61
         H          1.063            2.062      6.13     74.16
         H          1.068            2.062      6.13     74.12
         H          1.025            2.062      6.16     74.46
         H          1.015            2.062      6.17     74.56
         H          1.016            2.062      6.17     74.55
         H          1.011            2.062      6.17     74.61
         H          1.024            2.062      6.16     74.47
         H          1.046            2.062      6.14     74.28
         H          1.025            2.062      6.16     74.47
         H          1.011            2.062      6.17     74.60
         H          1.017            2.062      6.17     74.54
         H          1.012            2.062      6.17     74.59
         H          1.054            2.062      6.14     74.22
         H          1.016            2.062      6.17     74.56
         H          1.059            2.062      6.14     74.18
         H          1.015            2.062      6.17     74.56
         H          1.007            2.062      6.17     74.64
         H          1.015            2.062      6.17     74.56
         H          1.029            2.062      6.16     74.43
         H          1.038            2.062      6.15     74.35
         H          1.033            2.062      6.15     74.40
         H          1.027            2.062      6.16     74.44
         H          1.043            2.062      6.15     74.31

         Molecular C6 ( Ry / a.u.^6 ) =   1214769.69


     Subspace diagonalization in iterative solution of the eigenvalue problem:
     a serial algorithm will be used


     Parallelization info
     --------------------
     sticks:   dense  smooth     PW     G-vecs:    dense   smooth      PW
     Min         664     664    171                74386    74386    9743
     Max         665     665    172                74393    74393    9748
     Sum       21277   21277   5485              2380507  2380507  311845



     bravais-lattice index     =            0
     lattice parameter (alat)  =      23.5530  a.u.
     unit-cell volume          =   13405.6124 (a.u.)^3
     number of atoms/cell      =           96
     number of atomic types    =            5
     number of electrons       =       408.00
     number of Kohn-Sham states=          204
     kinetic-energy cutoff     =     120.0000  Ry
     charge density cutoff     =     480.0000  Ry
     convergence threshold     =      1.0E-07
     mixing beta               =       0.7000
     number of iterations used =            8  plain     mixing
     Exchange-correlation      = SLA PW PBX PBC ( 1  4  3  4 0 0)
     nstep                     =          150


     celldm(1)=  23.552952  celldm(2)=   0.000000  celldm(3)=   0.000000
     celldm(4)=   0.000000  celldm(5)=   0.000000  celldm(6)=   0.000000

     crystal axes: (cart. coord. in units of alat)
               a(1) = (   1.000000   0.000000   0.000000 )  
               a(2) = (   0.000000   1.003600   0.000000 )  
               a(3) = (   0.000000   0.000000   1.022328 )  

     reciprocal axes: (cart. coord. in units 2 pi/alat)
               b(1) = (  1.000000  0.000000  0.000000 )  
               b(2) = (  0.000000  0.996413  0.000000 )  
               b(3) = (  0.000000  0.000000  0.978160 )  


     PseudoPot. # 1 for Pb read from file:
     ../../../../Pseudopotential/Pb.pbe-dn-kjpaw_psl.1.0.0.UPF
     MD5 check sum: 684fc8fbce61a260853528575e4d9ab7
     Pseudo is Projector augmented-wave + core cor, Zval = 14.0
     Generated using "atomic" code by A. Dal Corso v.6.3
     Shape of augmentation charge: PSQ
     Using radial grid of 1281 points,  6 beta functions with: 
                l(1) =   0
                l(2) =   0
                l(3) =   1
                l(4) =   1
                l(5) =   2
                l(6) =   2
     Q(r) pseudized with 0 coefficients 


     PseudoPot. # 2 for I  read from file:
     ../../../../Pseudopotential/I.pbe-n-kjpaw_psl.1.0.0.UPF
     MD5 check sum: cd3d296c3308a581e1559a0c8a554cb5
     Pseudo is Projector augmented-wave + core cor, Zval =  7.0
     Generated using "atomic" code by A. Dal Corso v.6.3
     Shape of augmentation charge: PSQ
     Using radial grid of 1247 points,  6 beta functions with: 
                l(1) =   0
                l(2) =   0
                l(3) =   1
                l(4) =   1
                l(5) =   2
                l(6) =   2
     Q(r) pseudized with 0 coefficients 


     PseudoPot. # 3 for C  read from file:
     ../../../../Pseudopotential/C.pbe-n-kjpaw_psl.1.0.0.UPF
     MD5 check sum: 5f16ad9a65e90284d1d834d4ab3b0f7d
     Pseudo is Projector augmented-wave + core cor, Zval =  4.0
     Generated using "atomic" code by A. Dal Corso v.6.3
     Shape of augmentation charge: PSQ
     Using radial grid of 1073 points,  4 beta functions with: 
                l(1) =   0
                l(2) =   0
                l(3) =   1
                l(4) =   1
     Q(r) pseudized with 0 coefficients 


     PseudoPot. # 4 for N  read from file:
     ../../../../Pseudopotential/N.pbe-n-kjpaw_psl.1.0.0.UPF
     MD5 check sum: 14c48229446f9f2d411169a3abcbc3fa
     Pseudo is Projector augmented-wave + core cor, Zval =  5.0
     Generated using "atomic" code by A. Dal Corso v.6.3
     Shape of augmentation charge: PSQ
     Using radial grid of 1085 points,  4 beta functions with: 
                l(1) =   0
                l(2) =   0
                l(3) =   1
                l(4) =   1
     Q(r) pseudized with 0 coefficients 


     PseudoPot. # 5 for H  read from file:
     ../../../../Pseudopotential/H.pbe-kjpaw_psl.1.0.0.UPF
     MD5 check sum: d81a744832360e4a8af0b0b5b123bc2a
     Pseudo is Projector augmented-wave, Zval =  1.0
     Generated using "atomic" code by A. Dal Corso v.6.3MaX
     Shape of augmentation charge: PSQ
     Using radial grid of  929 points,  2 beta functions with: 
                l(1) =   0
                l(2) =   0
     Q(r) pseudized with 0 coefficients 


     atomic species   valence    mass     pseudopotential
        Pb            14.00   207.97600     Pb( 1.00)
        I              7.00   126.90400     I ( 1.00)
        C              4.00    12.00000     C ( 1.00)
        N              5.00    14.00300     N ( 1.00)
        H              1.00     1.00700     H ( 1.00)

     No symmetry found



   Cartesian axes

     site n.     atom                  positions (alat units)
         1           Pb  tau(   1) = (   0.0067782  -0.0057544   0.0038242  )
         2           Pb  tau(   2) = (   0.0071763  -0.0049582   0.5110830  )
         3           Pb  tau(   3) = (  -0.0000128   0.4974496   0.0014291  )
         4           Pb  tau(   4) = (   0.0000138   0.4966952   0.5160642  )
         5           Pb  tau(   5) = (   0.4999200  -0.0054094   0.0047413  )
         6           Pb  tau(   6) = (   0.4999643  -0.0043283   0.5123128  )
         7           Pb  tau(   7) = (   0.5071960   0.4963934   0.0004171  )
         8           Pb  tau(   8) = (   0.5067505   0.4962656   0.5154394  )
         9           I   tau(   9) = (   0.2535440   0.0699132   0.0120862  )
        10           I   tau(  10) = (  -0.0414810   0.2446296  -0.0276144  )
        11           I   tau(  11) = (  -0.0315253   0.0178724   0.2601346  )
        12           I   tau(  12) = (   0.2524031   0.0713707   0.5068744  )
        13           I   tau(  13) = (  -0.0426001   0.2446116   0.5415561  )
        14           I   tau(  14) = (   0.0178837  -0.0271491   0.7713903  )
        15           I   tau(  15) = (   0.2531812   0.4618461   0.0256667  )
        16           I   tau(  16) = (   0.0730396   0.7468853   0.0007249  )
        17           I   tau(  17) = (  -0.0102360   0.5098911   0.2588277  )
        18           I   tau(  18) = (   0.2538833   0.4618916   0.4908146  )
        19           I   tau(  19) = (   0.0724667   0.7468822   0.5158786  )
        20           I   tau(  20) = (   0.0225490   0.4934193   0.7697605  )
        21           I   tau(  21) = (   0.7539758  -0.0406924  -0.0203425  )
        22           I   tau(  22) = (   0.5726910   0.2455338   0.0049286  )
        23           I   tau(  23) = (   0.5223914  -0.0083702   0.2589979  )
        24           I   tau(  24) = (   0.7529509  -0.0392535   0.5365987  )
        25           I   tau(  25) = (   0.5725216   0.2452654   0.5119962  )
        26           I   tau(  26) = (   0.4900200   0.0082479   0.7703597  )
        27           I   tau(  27) = (   0.7525884   0.5728421  -0.0047431  )
        28           I   tau(  28) = (   0.4571980   0.7468416   0.0306807  )
        29           I   tau(  29) = (   0.5180633   0.4743557   0.2593580  )
        30           I   tau(  30) = (   0.7534787   0.5716310   0.5231559  )
        31           I   tau(  31) = (   0.4589821   0.7464089   0.4837302  )
        32           I   tau(  32) = (   0.4685028   0.5196290   0.7705287  )
        33           C   tau(  33) = (   0.2520077   0.2895024   0.2583943  )
        34           C   tau(  34) = (   0.2835985   0.2823039   0.7686790  )
        35           C   tau(  35) = (   0.2585538   0.7909553   0.2596384  )
        36           C   tau(  36) = (   0.2944844   0.7918772   0.7681711  )
        37           C   tau(  37) = (   0.7944549   0.2901328   0.2574729  )
        38           C   tau(  38) = (   0.7587724   0.2887916   0.7705246  )
        39           C   tau(  39) = (   0.7837845   0.7839679   0.2580884  )
        40           C   tau(  40) = (   0.7513481   0.7911253   0.7692781  )
        41           N   tau(  41) = (   0.1547337   0.2488241   0.2582721  )
        42           N   tau(  42) = (   0.3421707   0.2348981   0.2582561  )
        43           N   tau(  43) = (   0.1984103   0.1978465   0.7724473  )
        44           N   tau(  44) = (   0.2371866   0.6727492   0.2600045  )
        45           N   tau(  45) = (   0.2169932   0.7004111   0.7698453  )
        46           N   tau(  46) = (   0.7168108   0.1988507   0.2591070  )
        47           N   tau(  47) = (   0.7373573   0.1706352   0.7712777  )
        48           N   tau(  48) = (   0.6995835   0.6986236   0.2603380  )
        49           N   tau(  49) = (   0.6539159   0.7507341   0.7693787  )
        50           N   tau(  50) = (   0.8414790   0.7364106   0.7690891  )
        51           H   tau(  51) = (   0.2593469   0.3764907   0.2586992  )
        52           H   tau(  52) = (   0.1384284   0.1684119   0.2581252  )
        53           H   tau(  53) = (   0.0912514   0.3005264   0.2585360  )
        54           H   tau(  54) = (   0.3462963   0.1532757   0.2580205  )
        55           H   tau(  55) = (   0.4127211   0.2765229   0.2581268  )
        56           H   tau(  56) = (   0.2025685   0.1488253   0.7050202  )
        57           H   tau(  57) = (   0.1223273   0.2306335   0.7748168  )
        58           H   tau(  58) = (   0.2072829   0.1496868   0.8402825  )
        59           H   tau(  59) = (   0.2721749   0.3308991   0.6963894  )
        60           H   tau(  60) = (   0.3619192   0.2424731   0.7668246  )
        61           H   tau(  61) = (   0.2765663   0.3320145   0.8406148  )
        62           H   tau(  62) = (   0.2654162   0.6362688   0.1907490  )
        63           H   tau(  63) = (   0.1557276   0.6552913   0.2640672  )
        64           H   tau(  64) = (   0.2727239   0.6353216   0.3254059  )
        65           H   tau(  65) = (   0.2180972   0.8264662   0.1901947  )
        66           H   tau(  66) = (   0.3451872   0.8032990   0.2541811  )
        67           H   tau(  67) = (   0.2279503   0.8242745   0.3348519  )
        68           H   tau(  68) = (   0.1672442   0.7021907   0.7025834  )
        69           H   tau(  69) = (   0.1686372   0.7035434   0.8381163  )
        70           H   tau(  70) = (   0.2570101   0.6276383   0.7702355  )
        71           H   tau(  71) = (   0.3435094   0.7852691   0.6955653  )
        72           H   tau(  72) = (   0.3447595   0.7867922   0.8400510  )
        73           H   tau(  73) = (   0.2488751   0.8669508   0.7677550  )
        74           H   tau(  74) = (   0.6671324   0.2007297   0.1918369  )
        75           H   tau(  75) = (   0.6683845   0.2021948   0.3272917  )
        76           H   tau(  76) = (   0.7565980   0.1259435   0.2596598  )
        77           H   tau(  77) = (   0.8435481   0.2834646   0.1849333  )
        78           H   tau(  78) = (   0.8445027   0.2850354   0.3295068  )
        79           H   tau(  79) = (   0.7489687   0.3652408   0.2569077  )
        80           H   tau(  80) = (   0.7659340   0.1338293   0.7023201  )
        81           H   tau(  81) = (   0.6559162   0.1530256   0.7752263  )
        82           H   tau(  82) = (   0.7726346   0.1336356   0.8370116  )
        83           H   tau(  83) = (   0.7190024   0.3239578   0.7005696  )
        84           H   tau(  84) = (   0.8454733   0.3011219   0.7656583  )
        85           H   tau(  85) = (   0.7272488   0.3225601   0.8451167  )
        86           H   tau(  86) = (   0.7042899   0.6499375   0.1926472  )
        87           H   tau(  87) = (   0.6234511   0.7310729   0.2623359  )
        88           H   tau(  88) = (   0.7076986   0.6504120   0.3281667  )
        89           H   tau(  89) = (   0.7726131   0.8328827   0.1860489  )
        90           H   tau(  90) = (   0.8624218   0.7450034   0.2567617  )
        91           H   tau(  91) = (   0.7756841   0.8331409   0.3303371  )
        92           H   tau(  92) = (   0.7584770   0.8781743   0.7693666  )
        93           H   tau(  93) = (   0.6371222   0.6704567   0.7693535  )
        94           H   tau(  94) = (   0.5904600   0.8025017   0.7698147  )
        95           H   tau(  95) = (   0.8457185   0.6547210   0.7690666  )
        96           H   tau(  96) = (   0.9118950   0.7783933   0.7690752  )

     number of k points=    32
                       cart. coord. in units 2pi/alat
        k(    1) = (   0.1250000   0.1245517   0.1222700), wk =   0.0625000
        k(    2) = (   0.1250000   0.1245517   0.3668100), wk =   0.0625000
        k(    3) = (   0.1250000   0.3736550   0.1222700), wk =   0.0625000
        k(    4) = (   0.1250000   0.3736550   0.3668100), wk =   0.0625000
        k(    5) = (   0.3750000   0.1245517   0.1222700), wk =   0.0625000
        k(    6) = (   0.3750000   0.1245517   0.3668100), wk =   0.0625000
        k(    7) = (   0.3750000   0.3736550   0.1222700), wk =   0.0625000
        k(    8) = (   0.3750000   0.3736550   0.3668100), wk =   0.0625000
        k(    9) = (  -0.1250000  -0.1245517   0.1222700), wk =   0.0625000
        k(   10) = (  -0.1250000   0.1245517  -0.1222700), wk =   0.0625000
        k(   11) = (   0.1250000  -0.1245517  -0.1222700), wk =   0.0625000
        k(   12) = (  -0.1250000  -0.1245517   0.3668100), wk =   0.0625000
        k(   13) = (  -0.1250000   0.1245517  -0.3668100), wk =   0.0625000
        k(   14) = (   0.1250000  -0.1245517  -0.3668100), wk =   0.0625000
        k(   15) = (  -0.1250000  -0.3736550   0.1222700), wk =   0.0625000
        k(   16) = (  -0.1250000   0.3736550  -0.1222700), wk =   0.0625000
        k(   17) = (   0.1250000  -0.3736550  -0.1222700), wk =   0.0625000
        k(   18) = (  -0.1250000  -0.3736550   0.3668100), wk =   0.0625000
        k(   19) = (  -0.1250000   0.3736550  -0.3668100), wk =   0.0625000
        k(   20) = (   0.1250000  -0.3736550  -0.3668100), wk =   0.0625000
        k(   21) = (  -0.3750000  -0.1245517   0.1222700), wk =   0.0625000
        k(   22) = (  -0.3750000   0.1245517  -0.1222700), wk =   0.0625000
        k(   23) = (   0.3750000  -0.1245517  -0.1222700), wk =   0.0625000
        k(   24) = (  -0.3750000  -0.1245517   0.3668100), wk =   0.0625000
        k(   25) = (  -0.3750000   0.1245517  -0.3668100), wk =   0.0625000
        k(   26) = (   0.3750000  -0.1245517  -0.3668100), wk =   0.0625000
        k(   27) = (  -0.3750000  -0.3736550   0.1222700), wk =   0.0625000
        k(   28) = (  -0.3750000   0.3736550  -0.1222700), wk =   0.0625000
        k(   29) = (   0.3750000  -0.3736550  -0.1222700), wk =   0.0625000
        k(   30) = (  -0.3750000  -0.3736550   0.3668100), wk =   0.0625000
        k(   31) = (  -0.3750000   0.3736550  -0.3668100), wk =   0.0625000
        k(   32) = (   0.3750000  -0.3736550  -0.3668100), wk =   0.0625000

     Dense  grid:  2380507 G-vectors     FFT dimensions: ( 180, 180, 180)

     Estimated max dynamical RAM per process >       1.69 GB

     Estimated total dynamical RAM >      53.95 GB

     Initial potential from superposition of free atoms

     starting charge  407.97850, renormalised to  408.00000
     Starting wfcs are  286 randomized atomic wfcs
     Checking if some PAW data can be deallocated... 

     total cpu time spent up to now is      809.2 secs

     Self-consistent Calculation

     iteration #  1     ecut=   120.00 Ry     beta= 0.70
     Davidson diagonalization with overlap
     ethr =  1.00E-02,  avg # of iterations =  2.0

     total cpu time spent up to now is     2387.5 secs

     total energy              =  -16543.28024396 Ry
     Harris-Foulkes estimate   =  -16546.89956531 Ry
     estimated scf accuracy    <       5.98404015 Ry

     iteration #  2     ecut=   120.00 Ry     beta= 0.70
     Davidson diagonalization with overlap
     ethr =  1.47E-03,  avg # of iterations =  3.5

     total cpu time spent up to now is     4402.4 secs

     total energy              =  -16544.57914018 Ry
     Harris-Foulkes estimate   =  -16546.04389534 Ry
     estimated scf accuracy    <       2.63647282 Ry

     iteration #  3     ecut=   120.00 Ry     beta= 0.70
     Davidson diagonalization with overlap
     ethr =  6.46E-04,  avg # of iterations =  4.0

     total cpu time spent up to now is     6101.9 secs

     total energy              =  -16545.19231977 Ry
     Harris-Foulkes estimate   =  -16545.24726913 Ry
     estimated scf accuracy    <       0.12320669 Ry

     iteration #  4     ecut=   120.00 Ry     beta= 0.70
     Davidson diagonalization with overlap
     ethr =  3.02E-05,  avg # of iterations =  4.0

     total cpu time spent up to now is     8307.5 secs

     total energy              =  -16545.22484986 Ry
     Harris-Foulkes estimate   =  -16545.24131255 Ry
     estimated scf accuracy    <       0.03158707 Ry

     iteration #  5     ecut=   120.00 Ry     beta= 0.70
     Davidson diagonalization with overlap
     ethr =  7.74E-06,  avg # of iterations =  4.0

     total cpu time spent up to now is    10151.8 secs

     total energy              =  -16545.23126235 Ry
     Harris-Foulkes estimate   =  -16545.23236930 Ry
     estimated scf accuracy    <       0.00214785 Ry

     iteration #  6     ecut=   120.00 Ry     beta= 0.70
     Davidson diagonalization with overlap
     ethr =  5.26E-07,  avg # of iterations =  4.0

     total cpu time spent up to now is    12296.0 secs

     total energy              =  -16545.23189838 Ry
     Harris-Foulkes estimate   =  -16545.23212185 Ry
     estimated scf accuracy    <       0.00049983 Ry

     iteration #  7     ecut=   120.00 Ry     beta= 0.70
     Davidson diagonalization with overlap
     ethr =  1.23E-07,  avg # of iterations =  3.0

     total cpu time spent up to now is    14289.9 secs

     total energy              =  -16545.23200624 Ry
     Harris-Foulkes estimate   =  -16545.23202001 Ry
     estimated scf accuracy    <       0.00003370 Ry

     iteration #  8     ecut=   120.00 Ry     beta= 0.70
     Davidson diagonalization with overlap
     ethr =  8.26E-09,  avg # of iterations =  4.0

     total cpu time spent up to now is    16553.1 secs

     total energy              =  -16545.23201490 Ry
     Harris-Foulkes estimate   =  -16545.23202329 Ry
     estimated scf accuracy    <       0.00001857 Ry

     iteration #  9     ecut=   120.00 Ry     beta= 0.70
     Davidson diagonalization with overlap
     ethr =  4.55E-09,  avg # of iterations =  3.5

     total cpu time spent up to now is    18580.8 secs

     total energy              =  -16545.23201894 Ry
     Harris-Foulkes estimate   =  -16545.23201964 Ry
     estimated scf accuracy    <       0.00000155 Ry

     iteration # 10     ecut=   120.00 Ry     beta= 0.70
     Davidson diagonalization with overlap
     ethr =  3.79E-10,  avg # of iterations =  4.0

     total cpu time spent up to now is    20534.8 secs

     total energy              =  -16545.23201931 Ry
     Harris-Foulkes estimate   =  -16545.23201941 Ry
     estimated scf accuracy    <       0.00000021 Ry

     iteration # 11     ecut=   120.00 Ry     beta= 0.70
     Davidson diagonalization with overlap
     ethr =  5.21E-11,  avg # of iterations =  3.2

     total cpu time spent up to now is    22541.5 secs

     End of self-consistent calculation

          k = 0.1250 0.1246 0.1223 (297546 PWs)   bands (ev):

   -17.7612 -17.7521 -17.4580 -17.4576 -17.4420 -17.4303 -17.3458 -17.3414
   -15.6190 -15.6167 -14.1137 -14.1119 -14.1013 -14.1008 -14.0912 -14.0886
   -14.0868 -14.0860 -14.0840 -14.0808 -14.0770 -14.0748 -14.0684 -14.0670
   -14.0668 -14.0661 -14.0653 -14.0648 -14.0640 -14.0623 -14.0604 -14.0600
   -14.0599 -14.0594 -14.0533 -14.0505 -14.0461 -14.0456 -14.0451 -14.0438
   -14.0437 -14.0423 -14.0415 -14.0414 -14.0412 -14.0386 -14.0300 -14.0298
   -14.0293 -14.0263 -10.4095 -10.4081 -10.3893 -10.3813 -10.3333 -10.3314
    -9.6226  -9.6146  -9.5117  -9.3943  -9.3648  -9.3173  -9.2683  -9.2214
    -9.2068  -9.1780  -9.1292  -9.1112  -9.0751  -9.0322  -9.0200  -9.0018
    -8.9940  -8.9921  -8.9682  -8.9637  -8.9241  -8.8751  -8.8464  -8.8275
    -8.7925  -8.7792  -7.6084  -7.5974  -7.0251  -7.0235  -6.9016  -6.8994
    -6.8723  -6.8688  -6.8436  -6.8319  -6.8180  -6.8109  -6.7945  -6.7925
    -6.7523  -6.7494  -5.7249  -5.3172  -5.2892  -5.2804  -5.2648  -5.2521
    -4.8825  -4.8575  -4.8429  -4.7640  -4.7485  -4.7426  -4.7318  -4.6799
    -4.6674  -4.4182  -3.7299  -3.7249  -3.1802  -3.1752  -2.6985  -2.6865
    -2.6695  -2.6598  -2.6524  -2.6481  -2.6436  -2.6388  -2.6312  -2.6290
    -2.6230  -2.6155  -0.7976  -0.7577  -0.6690  -0.6668  -0.6305  -0.5705
    -0.5682  -0.5355  -0.4882  -0.4157  -0.4136  -0.3454   0.0036   0.1013
     0.3933   0.3980   0.4426   0.4749   0.5100   0.5127   0.5655   0.6296
     0.6765   0.6841   0.7332   0.7660   0.8231   0.8796   0.8917   0.9275
     0.9478   0.9776   1.0215   1.0315   1.0579   1.0829   1.1062   1.1130
     1.1331   1.1439   1.1595   1.1724   1.1742   1.2109   1.2163   1.2526
     1.2694   1.3026   1.3278   1.3584   1.3674   1.3781   1.4160   1.4327
     1.4531   1.4618   1.4821   1.4986   1.5256   1.5369   1.5717   1.5993
     1.6292   1.6666   1.6753   1.7472   1.7506   1.8367   1.8544   1.8886
     1.9408   1.9798   2.0174   2.2312

          k = 0.1250 0.1246 0.3668 (297586 PWs)   bands (ev):

   -17.7612 -17.7521 -17.4580 -17.4576 -17.4420 -17.4303 -17.3458 -17.3414
   -15.6190 -15.6167 -14.1116 -14.1093 -14.1035 -14.1034 -14.0908 -14.0882
   -14.0859 -14.0847 -14.0834 -14.0799 -14.0794 -14.0769 -14.0684 -14.0670
   -14.0668 -14.0661 -14.0653 -14.0648 -14.0640 -14.0623 -14.0604 -14.0600
   -14.0599 -14.0594 -14.0533 -14.0505 -14.0461 -14.0456 -14.0451 -14.0438
   -14.0437 -14.0423 -14.0415 -14.0414 -14.0412 -14.0386 -14.0300 -14.0298
   -14.0293 -14.0263 -10.4088 -10.4082 -10.3895 -10.3814 -10.3332 -10.3316
    -9.6148  -9.6121  -9.4880  -9.4316  -9.3598  -9.3069  -9.3034  -9.2511
    -9.2347  -9.2151  -9.0614  -9.0554  -9.0406  -9.0290  -9.0187  -9.0108
    -9.0050  -8.9921  -8.9528  -8.9353  -8.9203  -8.8894  -8.8783  -8.8552
    -8.7882  -8.7825  -7.6084  -7.5980  -7.0251  -7.0236  -6.8989  -6.8981
    -6.8717  -6.8696  -6.8433  -6.8316  -6.8132  -6.8091  -6.7997  -6.7972
    -6.7519  -6.7494  -5.6017  -5.4130  -5.2839  -5.2773  -5.1949  -5.1522
    -5.0075  -4.9787  -4.7979  -4.7640  -4.7509  -4.7460  -4.7212  -4.6848
    -4.6597  -4.5574  -3.7302  -3.7252  -3.1800  -3.1754  -2.6932  -2.6842
    -2.6701  -2.6656  -2.6567  -2.6542  -2.6482  -2.6428  -2.6289  -2.6243
    -2.6135  -2.6084  -0.6429  -0.6093  -0.6086  -0.5580  -0.5039  -0.4663
    -0.4605  -0.4303  -0.3115  -0.3076  -0.2342  -0.1724   0.0123   0.0753
     0.2506   0.2986   0.3568   0.4026   0.4673   0.4775   0.5030   0.5312
     0.5369   0.5558   0.5904   0.6225   0.6332   0.6616   0.8515   0.8889
     0.8967   0.9273   1.0042   1.0099   1.0193   1.0340   1.0617   1.0766
     1.1037   1.1216   1.1510   1.1537   1.2105   1.2267   1.2774   1.2847
     1.3247   1.3278   1.3533   1.3715   1.3792   1.3857   1.4380   1.4484
     1.4568   1.4686   1.4908   1.5030   1.5194   1.5298   1.5708   1.5758
     1.6234   1.6293   1.6696   1.7104   1.7224   1.7848   1.7957   1.8164
     1.8620   1.8673   2.0243   2.0715

          k = 0.1250 0.3737 0.1223 (297575 PWs)   bands (ev):

   -17.7612 -17.7521 -17.4580 -17.4576 -17.4420 -17.4303 -17.3458 -17.3414
   -15.6190 -15.6167 -14.1137 -14.1118 -14.1012 -14.1007 -14.0905 -14.0879
   -14.0868 -14.0857 -14.0829 -14.0815 -14.0770 -14.0753 -14.0684 -14.0673
   -14.0666 -14.0662 -14.0657 -14.0655 -14.0641 -14.0628 -14.0604 -14.0600
   -14.0599 -14.0595 -14.0533 -14.0505 -14.0461 -14.0456 -14.0451 -14.0438
   -14.0437 -14.0424 -14.0415 -14.0414 -14.0412 -14.0386 -14.0300 -14.0298
   -14.0293 -14.0263 -10.4084 -10.4083 -10.3892 -10.3812 -10.3337 -10.3322
    -9.6206  -9.6185  -9.4743  -9.4216  -9.3560  -9.2973  -9.2931  -9.2499
    -9.2047  -9.1997  -9.1350  -9.1310  -9.0649  -9.0547  -9.0135  -9.0056
    -8.9843  -8.9645  -8.9539  -8.9431  -8.8795  -8.8673  -8.8557  -8.8242
    -8.8190  -8.8003  -7.6078  -7.5974  -7.0251  -7.0235  -6.9007  -6.9003
    -6.8713  -6.8690  -6.8438  -6.8321  -6.8173  -6.8123  -6.7947  -6.7927
    -6.7524  -6.7496  -5.6094  -5.4363  -5.2851  -5.2783  -5.1736  -5.1510
    -5.0115  -4.9850  -4.7884  -4.7650  -4.7503  -4.7406  -4.7082  -4.6843
    -4.6536  -4.5396  -3.7304  -3.7254  -3.1800  -3.1754  -2.6928  -2.6845
    -2.6648  -2.6602  -2.6529  -2.6462  -2.6439  -2.6380  -2.6351  -2.6305
    -2.6257  -2.6196  -0.7687  -0.7498  -0.6554  -0.6293  -0.5958  -0.5695
    -0.5256  -0.4640  -0.2932  -0.1708  -0.1000  -0.0414   0.0768   0.0841
     0.1904   0.3371   0.3912   0.4294   0.4391   0.4718   0.5191   0.5674
     0.5715   0.5984   0.6382   0.6816   0.7351   0.7946   0.8336   0.8584
     0.8911   0.9081   0.9939   1.0081   1.0427   1.0601   1.0841   1.0878
     1.1108   1.1160   1.1625   1.1780   1.1953   1.1974   1.2339   1.2458
     1.2680   1.2890   1.3227   1.3424   1.3710   1.3734   1.4112   1.4243
     1.4432   1.4741   1.4813   1.5249   1.5640   1.5693   1.5888   1.5939
     1.6065   1.6315   1.6715   1.7004   1.7593   1.8212   1.8296   1.8389
     1.8731   1.8841   2.0117   2.0706

          k = 0.1250 0.3737 0.3668 (297554 PWs)   bands (ev):

   -17.7612 -17.7521 -17.4580 -17.4576 -17.4420 -17.4303 -17.3458 -17.3414
   -15.6190 -15.6167 -14.1115 -14.1092 -14.1034 -14.1033 -14.0902 -14.0874
   -14.0851 -14.0846 -14.0827 -14.0807 -14.0793 -14.0776 -14.0684 -14.0673
   -14.0666 -14.0662 -14.0657 -14.0654 -14.0641 -14.0628 -14.0604 -14.0600
   -14.0599 -14.0595 -14.0533 -14.0505 -14.0461 -14.0456 -14.0451 -14.0438
   -14.0437 -14.0423 -14.0415 -14.0414 -14.0412 -14.0386 -14.0300 -14.0298
   -14.0293 -14.0263 -10.4082 -10.4082 -10.3892 -10.3812 -10.3337 -10.3322
    -9.6155  -9.6145  -9.4547  -9.4208  -9.3529  -9.3231  -9.3196  -9.2819
    -9.2488  -9.2290  -9.0627  -9.0610  -9.0377  -9.0351  -9.0182  -9.0109
    -8.9848  -8.9808  -8.9398  -8.9354  -8.9066  -8.8856  -8.8558  -8.8385
    -8.8137  -8.8051  -7.6080  -7.5977  -7.0251  -7.0236  -6.8986  -6.8985
    -6.8711  -6.8694  -6.8435  -6.8318  -6.8132  -6.8097  -6.7998  -6.7973
    -6.7520  -6.7496  -5.4895  -5.3287  -5.3031  -5.2817  -5.2670  -5.1312
    -5.0621  -4.9180  -4.8815  -4.7860  -4.7510  -4.7477  -4.7285  -4.7029
    -4.6648  -4.6424  -3.7306  -3.7256  -3.1800  -3.1755  -2.6924  -2.6841
    -2.6689  -2.6640  -2.6549  -2.6512  -2.6466  -2.6418  -2.6327  -2.6291
    -2.6130  -2.6092  -0.6048  -0.5724  -0.5382  -0.4985  -0.4053  -0.3596
    -0.2985  -0.2268  -0.2109  -0.1700  -0.0978  -0.0705   0.0615   0.0681
     0.2097   0.2155   0.3047   0.3316   0.3703   0.3974   0.4193   0.4590
     0.5071   0.5182   0.5598   0.5676   0.7112   0.7126   0.7661   0.8004
     0.8434   0.8468   0.9085   0.9174   0.9383   0.9400   1.0271   1.0379
     1.0666   1.0692   1.1365   1.1427   1.1592   1.1711   1.2461   1.2613
     1.3053   1.3210   1.3443   1.3589   1.3881   1.4046   1.4383   1.4591
     1.4901   1.4943   1.5055   1.5146   1.5472   1.5530   1.5747   1.5815
     1.6066   1.6269   1.6702   1.6748   1.7203   1.7308   1.8054   1.8208
     1.8446   1.8520   1.8903   1.9052

          k = 0.3750 0.1246 0.1223 (297576 PWs)   bands (ev):

   -17.7612 -17.7521 -17.4580 -17.4576 -17.4420 -17.4303 -17.3458 -17.3414
   -15.6190 -15.6167 -14.1136 -14.1118 -14.1011 -14.1006 -14.0901 -14.0882
   -14.0863 -14.0856 -14.0830 -14.0816 -14.0774 -14.0755 -14.0684 -14.0670
   -14.0668 -14.0664 -14.0657 -14.0653 -14.0638 -14.0630 -14.0604 -14.0600
   -14.0599 -14.0594 -14.0533 -14.0505 -14.0461 -14.0456 -14.0451 -14.0438
   -14.0437 -14.0423 -14.0415 -14.0414 -14.0412 -14.0386 -14.0300 -14.0298
   -14.0293 -14.0263 -10.4086 -10.4085 -10.3893 -10.3813 -10.3338 -10.3322
    -9.6103  -9.6091  -9.4916  -9.4470  -9.3480  -9.2998  -9.2887  -9.2396
    -9.2019  -9.2004  -9.1315  -9.1291  -9.0760  -9.0602  -8.9935  -8.9883
    -8.9768  -8.9724  -8.9620  -8.9520  -8.8793  -8.8665  -8.8641  -8.8235
    -8.8167  -8.8031  -7.6083  -7.5979  -7.0256  -7.0241  -6.9009  -6.9006
    -6.8721  -6.8692  -6.8437  -6.8320  -6.8160  -6.8114  -6.7938  -6.7919
    -6.7524  -6.7495  -5.6058  -5.4268  -5.2856  -5.2789  -5.1841  -5.1486
    -5.0167  -4.9759  -4.7867  -4.7635  -4.7528  -4.7449  -4.7114  -4.6834
    -4.6577  -4.5458  -3.7306  -3.7256  -3.1801  -3.1755  -2.6961  -2.6891
    -2.6683  -2.6637  -2.6509  -2.6475  -2.6417  -2.6377  -2.6322  -2.6288
    -2.6222  -2.6170  -0.7822  -0.7696  -0.6434  -0.6161  -0.6012  -0.5631
    -0.4320  -0.3954  -0.2782  -0.2352  -0.1695  -0.0902   0.0410   0.1298
     0.2252   0.3472   0.4027   0.4289   0.4317   0.4901   0.4934   0.5414
     0.5783   0.5965   0.6517   0.6813   0.7381   0.7790   0.8409   0.8817
     0.8840   0.9575   0.9842   1.0009   1.0185   1.0640   1.1024   1.1069
     1.1397   1.1446   1.1676   1.1681   1.1807   1.2087   1.2386   1.2513
     1.2803   1.3199   1.3307   1.3396   1.3569   1.3674   1.3839   1.3957
     1.4040   1.4099   1.4872   1.4986   1.5365   1.5424   1.5907   1.5930
     1.6009   1.6221   1.6686   1.7114   1.7603   1.8028   1.8507   1.8587
     1.8736   1.9112   1.9967   2.0603

          k = 0.3750 0.1246 0.3668 (297637 PWs)   bands (ev):

   -17.7612 -17.7521 -17.4580 -17.4576 -17.4420 -17.4303 -17.3458 -17.3414
   -15.6190 -15.6167 -14.1115 -14.1092 -14.1033 -14.1032 -14.0899 -14.0874
   -14.0851 -14.0836 -14.0831 -14.0811 -14.0798 -14.0777 -14.0684 -14.0670
   -14.0668 -14.0665 -14.0657 -14.0653 -14.0638 -14.0630 -14.0604 -14.0601
   -14.0599 -14.0594 -14.0533 -14.0505 -14.0461 -14.0456 -14.0451 -14.0438
   -14.0437 -14.0423 -14.0415 -14.0414 -14.0412 -14.0386 -14.0300 -14.0298
   -14.0293 -14.0263 -10.4083 -10.4083 -10.3894 -10.3814 -10.3338 -10.3323
    -9.6079  -9.6069  -9.4604  -9.4135  -9.3966  -9.3483  -9.2985  -9.2654
    -9.2459  -9.2248  -9.0599  -9.0562  -9.0299  -9.0269  -9.0104  -9.0029
    -8.9958  -8.9849  -8.9402  -8.9385  -8.9090  -8.8927  -8.8551  -8.8371
    -8.8152  -8.8085  -7.6087  -7.5983  -7.0257  -7.0241  -6.8989  -6.8985
    -6.8719  -6.8696  -6.8434  -6.8317  -6.8115  -6.8089  -6.7992  -6.7968
    -6.7519  -6.7494  -5.4856  -5.3168  -5.2990  -5.2822  -5.2718  -5.1228
    -5.0722  -4.9139  -4.9002  -4.7877  -4.7502  -4.7471  -4.7311  -4.7048
    -4.6645  -4.6443  -3.7308  -3.7257  -3.1801  -3.1755  -2.6927  -2.6850
    -2.6728  -2.6684  -2.6560  -2.6520  -2.6470  -2.6405  -2.6280  -2.6233
    -2.6138  -2.6096  -0.5869  -0.5566  -0.5111  -0.4987  -0.3612  -0.3323
    -0.3131  -0.2589  -0.2150  -0.1936  -0.1060  -0.0958   0.0358   0.0460
     0.2303   0.2532   0.3146   0.3207   0.3544   0.3877   0.4259   0.4569
     0.4797   0.5207   0.5820   0.5961   0.7194   0.7255   0.7873   0.7989
     0.8530   0.8545   0.9257   0.9397   0.9695   0.9726   1.0003   1.0401
     1.0592   1.0775   1.0858   1.1092   1.1539   1.1754   1.2386   1.2865
     1.3093   1.3312   1.3646   1.3706   1.3776   1.3860   1.4087   1.4152
     1.4704   1.4768   1.4964   1.5097   1.5202   1.5243   1.5798   1.5812
     1.5944   1.6160   1.6561   1.6821   1.7431   1.7468   1.7916   1.7935
     1.8360   1.8565   1.9162   1.9326

          k = 0.3750 0.3737 0.1223 (297606 PWs)   bands (ev):

   -17.7612 -17.7521 -17.4580 -17.4576 -17.4420 -17.4303 -17.3458 -17.3414
   -15.6190 -15.6167 -14.1135 -14.1117 -14.1010 -14.1005 -14.0894 -14.0873
   -14.0865 -14.0855 -14.0823 -14.0816 -14.0776 -14.0758 -14.0684 -14.0674
   -14.0669 -14.0667 -14.0663 -14.0655 -14.0640 -14.0635 -14.0604 -14.0601
   -14.0599 -14.0595 -14.0533 -14.0505 -14.0461 -14.0456 -14.0451 -14.0438
   -14.0437 -14.0424 -14.0415 -14.0414 -14.0412 -14.0386 -14.0300 -14.0298
   -14.0293 -14.0263 -10.4091 -10.4079 -10.3893 -10.3811 -10.3341 -10.3319
    -9.6132  -9.6116  -9.4527  -9.4293  -9.3889  -9.3263  -9.2653  -9.2534
    -9.2022  -9.1983  -9.1454  -9.1327  -9.1026  -9.0974  -8.9778  -8.9750
    -8.9621  -8.9527  -8.9395  -8.9192  -8.8787  -8.8610  -8.8523  -8.8450
    -8.8254  -8.8229  -7.6079  -7.5975  -7.0256  -7.0240  -6.9013  -6.9003
    -6.8718  -6.8687  -6.8440  -6.8321  -6.8172  -6.8108  -6.7941  -6.7918
    -6.7527  -6.7495  -5.4938  -5.3535  -5.2868  -5.2817  -5.2771  -5.1468
    -5.0476  -4.9005  -4.8683  -4.7858  -4.7513  -4.7465  -4.7301  -4.6978
    -4.6625  -4.6334  -3.7311  -3.7260  -3.1801  -3.1755  -2.6924  -2.6854
    -2.6654  -2.6614  -2.6518  -2.6452  -2.6436  -2.6383  -2.6346  -2.6308
    -2.6239  -2.6196  -0.7574  -0.7484  -0.6523  -0.6288  -0.3453  -0.2773
    -0.2544  -0.2318  -0.1871  -0.1554  -0.0891  -0.0433   0.1005   0.1126
     0.2126   0.2151   0.3782   0.3802   0.4292   0.4467   0.4669   0.4861
     0.4999   0.5746   0.5772   0.5870   0.6284   0.6725   0.6942   0.7919
     0.8676   0.9534   0.9736   1.0091   1.0113   1.0575   1.0826   1.1075
     1.1208   1.1249   1.1424   1.1592   1.1621   1.1917   1.2087   1.2282
     1.2620   1.2676   1.3133   1.3167   1.3415   1.3503   1.3631   1.3825
     1.3882   1.4226   1.4497   1.4556   1.4914   1.5344   1.5831   1.5913
     1.6141   1.6344   1.6912   1.7042   1.7492   1.7631   1.8167   1.8407
     1.8538   1.8667   1.9434   1.9667

          k = 0.3750 0.3737 0.3668 (297626 PWs)   bands (ev):

   -17.7612 -17.7521 -17.4580 -17.4576 -17.4420 -17.4303 -17.3458 -17.3414
   -15.6190 -15.6167 -14.1114 -14.1091 -14.1032 -14.1031 -14.0893 -14.0866
   -14.0846 -14.0835 -14.0824 -14.0814 -14.0800 -14.0782 -14.0684 -14.0674
   -14.0669 -14.0668 -14.0663 -14.0655 -14.0640 -14.0635 -14.0604 -14.0601
   -14.0600 -14.0595 -14.0533 -14.0505 -14.0461 -14.0456 -14.0451 -14.0438
   -14.0437 -14.0423 -14.0415 -14.0414 -14.0412 -14.0386 -14.0300 -14.0298
   -14.0293 -14.0263 -10.4087 -10.4082 -10.3892 -10.3812 -10.3338 -10.3322
    -9.6104  -9.6093  -9.4260  -9.4033  -9.3748  -9.3392  -9.3296  -9.3074
    -9.2658  -9.2435  -9.0686  -9.0583  -9.0394  -9.0316  -8.9992  -8.9967
    -8.9856  -8.9742  -8.9242  -8.9120  -8.8978  -8.8880  -8.8469  -8.8425
    -8.8294  -8.8277  -7.6082  -7.5979  -7.0256  -7.0241  -6.8991  -6.8984
    -6.8714  -6.8694  -6.8436  -6.8320  -6.8124  -6.8085  -6.7993  -6.7967
    -6.7520  -6.7495  -5.3778  -5.2880  -5.2796  -5.2367  -5.1884  -5.1689
    -5.0535  -5.0355  -4.9963  -4.8759  -4.7517  -4.7504  -4.7362  -4.7230
    -4.6653  -4.6611  -3.7312  -3.7261  -3.1801  -3.1756  -2.6924  -2.6847
    -2.6716  -2.6664  -2.6547  -2.6496  -2.6446  -2.6396  -2.6316  -2.6283
    -2.6129  -2.6097  -0.4037  -0.3827  -0.3333  -0.3312  -0.2619  -0.2607
    -0.2314  -0.1850  -0.1767  -0.1496  -0.0855  -0.0819   0.0533   0.0777
     0.2186   0.2311   0.2709   0.3147   0.3154   0.3367   0.3548   0.3827
     0.4266   0.4606   0.4782   0.4947   0.7369   0.7444   0.7573   0.8036
     0.8312   0.8564   0.8848   0.8989   0.9166   0.9255   0.9860   0.9909
     1.0224   1.0346   1.0771   1.0945   1.1345   1.1642   1.1682   1.1746
     1.2381   1.2643   1.3017   1.3222   1.3646   1.3705   1.3890   1.4072
     1.4251   1.4392   1.4940   1.4971   1.5205   1.5230   1.5464   1.5727
     1.5985   1.6072   1.6599   1.6778   1.7264   1.7273   1.7913   1.7940
     1.8418   1.8468   1.8654   1.8756

          k =-0.1250-0.1246 0.1223 (297546 PWs)   bands (ev):

   -17.7612 -17.7521 -17.4580 -17.4576 -17.4420 -17.4303 -17.3458 -17.3414
   -15.6190 -15.6167 -14.1137 -14.1119 -14.1013 -14.1008 -14.0912 -14.0886
   -14.0868 -14.0860 -14.0840 -14.0808 -14.0770 -14.0748 -14.0684 -14.0670
   -14.0668 -14.0661 -14.0653 -14.0648 -14.0640 -14.0623 -14.0604 -14.0600
   -14.0599 -14.0594 -14.0533 -14.0505 -14.0461 -14.0456 -14.0451 -14.0438
   -14.0437 -14.0423 -14.0415 -14.0414 -14.0412 -14.0386 -14.0300 -14.0298
   -14.0293 -14.0263 -10.4095 -10.4081 -10.3893 -10.3813 -10.3333 -10.3314
    -9.6226  -9.6145  -9.5115  -9.3949  -9.3663  -9.3148  -9.2686  -9.2204
    -9.2085  -9.1773  -9.1283  -9.1128  -9.0755  -9.0311  -9.0214  -9.0028
    -8.9923  -8.9911  -8.9673  -8.9648  -8.9243  -8.8755  -8.8465  -8.8275
    -8.7923  -8.7792  -7.6084  -7.5974  -7.0251  -7.0235  -6.9017  -6.8993
    -6.8723  -6.8688  -6.8436  -6.8318  -6.8181  -6.8108  -6.7945  -6.7925
    -6.7523  -6.7494  -5.7249  -5.3171  -5.2883  -5.2801  -5.2668  -5.2514
    -4.8818  -4.8568  -4.8440  -4.7640  -4.7485  -4.7426  -4.7320  -4.6799
    -4.6676  -4.4180  -3.7299  -3.7249  -3.1802  -3.1752  -2.6980  -2.6861
    -2.6696  -2.6608  -2.6509  -2.6493  -2.6433  -2.6396  -2.6313  -2.6285
    -2.6227  -2.6157  -0.7975  -0.7582  -0.6691  -0.6666  -0.6282  -0.5709
    -0.5702  -0.5358  -0.4860  -0.4173  -0.4136  -0.3457   0.0035   0.1013
     0.3939   0.3981   0.4426   0.4751   0.5104   0.5130   0.5653   0.6295
     0.6754   0.6840   0.7328   0.7680   0.8260   0.8789   0.8870   0.9252
     0.9556   0.9736   1.0185   1.0316   1.0588   1.0823   1.1035   1.1094
     1.1365   1.1434   1.1602   1.1718   1.1739   1.2064   1.2224   1.2559
     1.2714   1.3051   1.3298   1.3575   1.3660   1.3739   1.4216   1.4310
     1.4501   1.4656   1.4850   1.4946   1.5268   1.5382   1.5699   1.5956
     1.6305   1.6659   1.6758   1.7468   1.7504   1.8371   1.8543   1.8883
     1.9424   1.9803   2.0148   2.2312

          k =-0.1250 0.1246-0.1223 (297546 PWs)   bands (ev):

   -17.7612 -17.7521 -17.4580 -17.4576 -17.4420 -17.4303 -17.3458 -17.3414
   -15.6190 -15.6167 -14.1137 -14.1119 -14.1013 -14.1008 -14.0912 -14.0886
   -14.0868 -14.0860 -14.0840 -14.0808 -14.0770 -14.0748 -14.0684 -14.0670
   -14.0668 -14.0661 -14.0653 -14.0648 -14.0640 -14.0623 -14.0604 -14.0600
   -14.0599 -14.0594 -14.0533 -14.0505 -14.0461 -14.0456 -14.0451 -14.0438
   -14.0437 -14.0423 -14.0415 -14.0414 -14.0412 -14.0386 -14.0300 -14.0298
   -14.0293 -14.0263 -10.4100 -10.4080 -10.3894 -10.3813 -10.3333 -10.3308
    -9.6240  -9.6143  -9.5124  -9.3935  -9.3610  -9.3135  -9.2754  -9.2188
    -9.2112  -9.1749  -9.1305  -9.1070  -9.0888  -9.0275  -9.0169  -9.0005
    -8.9951  -8.9750  -8.9730  -8.9637  -8.9355  -8.8764  -8.8457  -8.8300
    -8.7908  -8.7769  -7.6084  -7.5973  -7.0252  -7.0236  -6.9019  -6.8992
    -6.8721  -6.8689  -6.8436  -6.8319  -6.8171  -6.8119  -6.7945  -6.7925
    -6.7522  -6.7495  -5.7251  -5.3141  -5.2879  -5.2803  -5.2696  -5.2520
    -4.8813  -4.8594  -4.8433  -4.7653  -4.7481  -4.7446  -4.7303  -4.6788
    -4.6654  -4.4183  -3.7299  -3.7249  -3.1802  -3.1752  -2.6982  -2.6863
    -2.6700  -2.6591  -2.6526  -2.6491  -2.6439  -2.6393  -2.6306  -2.6288
    -2.6220  -2.6158  -0.8000  -0.7583  -0.7041  -0.6687  -0.5982  -0.5731
    -0.5685  -0.5322  -0.4817  -0.4104  -0.4080  -0.3483   0.0045   0.1014
     0.3852   0.4099   0.4476   0.4748   0.5063   0.5128   0.5561   0.6344
     0.6694   0.6757   0.7203   0.7845   0.8189   0.8668   0.8852   0.9203
     0.9459   0.9824   1.0251   1.0380   1.0446   1.0518   1.0992   1.1237
     1.1278   1.1436   1.1604   1.1833   1.1897   1.2198   1.2438   1.2539
     1.2786   1.3008   1.3225   1.3611   1.3689   1.4028   1.4188   1.4315
     1.4420   1.4721   1.4931   1.4964   1.5053   1.5309   1.5717   1.5783
     1.6391   1.6678   1.6711   1.7470   1.7486   1.8374   1.8511   1.8822
     1.9414   1.9782   2.0283   2.2383

          k = 0.1250-0.1246-0.1223 (297546 PWs)   bands (ev):

   -17.7612 -17.7521 -17.4580 -17.4576 -17.4420 -17.4303 -17.3458 -17.3414
   -15.6190 -15.6167 -14.1137 -14.1119 -14.1013 -14.1008 -14.0912 -14.0886
   -14.0868 -14.0860 -14.0840 -14.0808 -14.0770 -14.0748 -14.0684 -14.0670
   -14.0668 -14.0661 -14.0653 -14.0648 -14.0640 -14.0623 -14.0604 -14.0600
   -14.0599 -14.0594 -14.0533 -14.0505 -14.0461 -14.0456 -14.0451 -14.0438
   -14.0437 -14.0423 -14.0415 -14.0414 -14.0412 -14.0386 -14.0300 -14.0298
   -14.0293 -14.0263 -10.4100 -10.4080 -10.3894 -10.3813 -10.3333 -10.3308
    -9.6239  -9.6143  -9.5126  -9.3930  -9.3609  -9.3138  -9.2749  -9.2197
    -9.2118  -9.1747  -9.1305  -9.1047  -9.0896  -9.0251  -9.0188  -9.0024
    -8.9950  -8.9785  -8.9732  -8.9601  -8.9349  -8.8764  -8.8456  -8.8299
    -8.7911  -8.7768  -7.6084  -7.5973  -7.0252  -7.0236  -6.9019  -6.8991
    -6.8718  -6.8692  -6.8436  -6.8318  -6.8172  -6.8117  -6.7945  -6.7925
    -6.7522  -6.7495  -5.7251  -5.3145  -5.2880  -5.2804  -5.2684  -5.2524
    -4.8820  -4.8597  -4.8422  -4.7654  -4.7482  -4.7445  -4.7304  -4.6788
    -4.6654  -4.4184  -3.7299  -3.7249  -3.1802  -3.1752  -2.6989  -2.6863
    -2.6694  -2.6590  -2.6518  -2.6488  -2.6438  -2.6396  -2.6310  -2.6291
    -2.6219  -2.6159  -0.7993  -0.7574  -0.7050  -0.6688  -0.5955  -0.5724
    -0.5714  -0.5324  -0.4833  -0.4105  -0.4082  -0.3482   0.0045   0.1014
     0.3853   0.4093   0.4485   0.4748   0.5065   0.5126   0.5572   0.6333
     0.6691   0.6767   0.7212   0.7814   0.8158   0.8737   0.8854   0.9227
     0.9472   0.9829   1.0229   1.0310   1.0488   1.0564   1.0980   1.1214
     1.1277   1.1460   1.1610   1.1811   1.1856   1.2209   1.2449   1.2544
     1.2793   1.2998   1.3222   1.3611   1.3642   1.4054   1.4160   1.4304
     1.4477   1.4754   1.4870   1.4987   1.5071   1.5305   1.5680   1.5780
     1.6387   1.6687   1.6728   1.7462   1.7482   1.8376   1.8519   1.8826
     1.9418   1.9768   2.0287   2.2389

          k =-0.1250-0.1246 0.3668 (297586 PWs)   bands (ev):

   -17.7612 -17.7521 -17.4580 -17.4576 -17.4420 -17.4303 -17.3458 -17.3414
   -15.6190 -15.6167 -14.1116 -14.1093 -14.1035 -14.1034 -14.0908 -14.0882
   -14.0859 -14.0847 -14.0834 -14.0799 -14.0794 -14.0769 -14.0684 -14.0670
   -14.0668 -14.0661 -14.0653 -14.0648 -14.0640 -14.0623 -14.0604 -14.0600
   -14.0599 -14.0594 -14.0533 -14.0505 -14.0461 -14.0456 -14.0451 -14.0438
   -14.0437 -14.0423 -14.0415 -14.0414 -14.0412 -14.0386 -14.0300 -14.0298
   -14.0293 -14.0263 -10.4088 -10.4082 -10.3895 -10.3815 -10.3332 -10.3316
    -9.6148  -9.6120  -9.4874  -9.4331  -9.3595  -9.3070  -9.3023  -9.2512
    -9.2334  -9.2165  -9.0608  -9.0567  -9.0421  -9.0276  -9.0178  -9.0123
    -9.0057  -8.9891  -8.9542  -8.9345  -8.9194  -8.8911  -8.8787  -8.8547
    -8.7879  -8.7827  -7.6085  -7.5980  -7.0251  -7.0236  -6.8992  -6.8978
    -6.8717  -6.8696  -6.8433  -6.8316  -6.8135  -6.8088  -6.7999  -6.7971
    -6.7519  -6.7494  -5.6018  -5.4128  -5.2839  -5.2773  -5.1953  -5.1524
    -5.0073  -4.9783  -4.7976  -4.7641  -4.7509  -4.7461  -4.7214  -4.6849
    -4.6603  -4.5569  -3.7302  -3.7252  -3.1800  -3.1754  -2.6923  -2.6843
    -2.6707  -2.6654  -2.6574  -2.6537  -2.6472  -2.6446  -2.6283  -2.6248
    -2.6128  -2.6089  -0.6422  -0.6102  -0.6082  -0.5592  -0.5035  -0.4669
    -0.4572  -0.4302  -0.3124  -0.3074  -0.2363  -0.1727   0.0121   0.0751
     0.2504   0.3005   0.3602   0.4049   0.4658   0.4755   0.4987   0.5290
     0.5377   0.5576   0.5900   0.6278   0.6315   0.6608   0.8507   0.8889
     0.8972   0.9257   1.0040   1.0068   1.0170   1.0350   1.0651   1.0784
     1.1055   1.1201   1.1509   1.1529   1.2139   1.2231   1.2774   1.2880
     1.3208   1.3294   1.3559   1.3688   1.3816   1.3860   1.4344   1.4457
     1.4611   1.4771   1.4916   1.5033   1.5134   1.5289   1.5690   1.5758
     1.6228   1.6289   1.6703   1.7094   1.7222   1.7868   1.7965   1.8132
     1.8633   1.8669   2.0230   2.0723

          k =-0.1250 0.1246-0.3668 (297586 PWs)   bands (ev):

   -17.7612 -17.7521 -17.4580 -17.4576 -17.4420 -17.4303 -17.3458 -17.3414
   -15.6190 -15.6167 -14.1116 -14.1093 -14.1035 -14.1034 -14.0908 -14.0882
   -14.0859 -14.0847 -14.0834 -14.0799 -14.0794 -14.0769 -14.0684 -14.0671
   -14.0668 -14.0661 -14.0653 -14.0648 -14.0640 -14.0623 -14.0604 -14.0600
   -14.0599 -14.0594 -14.0533 -14.0505 -14.0461 -14.0456 -14.0451 -14.0438
   -14.0437 -14.0423 -14.0415 -14.0414 -14.0412 -14.0386 -14.0300 -14.0298
   -14.0293 -14.0263 -10.4092 -10.4083 -10.3895 -10.3815 -10.3329 -10.3312
    -9.6156  -9.6120  -9.4885  -9.4337  -9.3573  -9.3057  -9.2979  -9.2520
    -9.2348  -9.2196  -9.0630  -9.0534  -9.0480  -9.0304  -9.0121  -9.0111
    -9.0057  -8.9855  -8.9584  -8.9311  -8.9176  -8.8976  -8.8751  -8.8595
    -8.7862  -8.7808  -7.6084  -7.5980  -7.0252  -7.0236  -6.8990  -6.8979
    -6.8719  -6.8694  -6.8433  -6.8316  -6.8127  -6.8096  -6.7997  -6.7973
    -6.7519  -6.7494  -5.6017  -5.4123  -5.2843  -5.2776  -5.1926  -5.1555
    -5.0053  -4.9816  -4.7964  -4.7647  -4.7510  -4.7461  -4.7215  -4.6841
    -4.6589  -4.5574  -3.7302  -3.7251  -3.1800  -3.1754  -2.6925  -2.6841
    -2.6705  -2.6650  -2.6570  -2.6545  -2.6486  -2.6433  -2.6286  -2.6243
    -2.6130  -2.6086  -0.6727  -0.6335  -0.5811  -0.5426  -0.4979  -0.4684
    -0.4544  -0.4201  -0.3179  -0.2982  -0.2376  -0.1724   0.0120   0.0759
     0.2476   0.2993   0.3577   0.4099   0.4651   0.4741   0.5101   0.5184
     0.5320   0.5535   0.5993   0.6106   0.6295   0.6750   0.8529   0.8895
     0.8911   0.9041   0.9711   1.0045   1.0304   1.0332   1.0614   1.0798
     1.0953   1.1197   1.1452   1.1636   1.2479   1.2535   1.2792   1.2967
     1.3101   1.3327   1.3607   1.3641   1.3875   1.3885   1.4202   1.4329
     1.4651   1.4801   1.4932   1.4968   1.5156   1.5317   1.5718   1.5813
     1.6302   1.6352   1.6662   1.7131   1.7149   1.7861   1.7931   1.8053
     1.8523   1.8562   2.0369   2.0824

          k = 0.1250-0.1246-0.3668 (297586 PWs)   bands (ev):

   -17.7612 -17.7521 -17.4580 -17.4576 -17.4420 -17.4303 -17.3458 -17.3414
   -15.6190 -15.6167 -14.1116 -14.1093 -14.1035 -14.1034 -14.0908 -14.0882
   -14.0859 -14.0847 -14.0834 -14.0799 -14.0794 -14.0769 -14.0684 -14.0671
   -14.0668 -14.0661 -14.0653 -14.0648 -14.0640 -14.0623 -14.0604 -14.0600
   -14.0599 -14.0594 -14.0533 -14.0505 -14.0461 -14.0456 -14.0451 -14.0438
   -14.0437 -14.0423 -14.0415 -14.0414 -14.0412 -14.0386 -14.0300 -14.0298
   -14.0293 -14.0263 -10.4092 -10.4083 -10.3895 -10.3814 -10.3329 -10.3312
    -9.6153  -9.6122  -9.4893  -9.4325  -9.3581  -9.3050  -9.2978  -9.2531
    -9.2339  -9.2204  -9.0638  -9.0523  -9.0454  -9.0276  -9.0165  -9.0137
    -9.0021  -8.9896  -8.9589  -8.9284  -8.9167  -8.8985  -8.8753  -8.8592
    -8.7866  -8.7806  -7.6084  -7.5980  -7.0252  -7.0236  -6.8992  -6.8978
    -6.8715  -6.8698  -6.8433  -6.8316  -6.8131  -6.8091  -6.7998  -6.7973
    -6.7519  -6.7494  -5.6016  -5.4125  -5.2843  -5.2776  -5.1924  -5.1555
    -5.0054  -4.9820  -4.7959  -4.7648  -4.7510  -4.7460  -4.7218  -4.6840
    -4.6588  -4.5576  -3.7302  -3.7251  -3.1800  -3.1754  -2.6934  -2.6841
    -2.6701  -2.6646  -2.6569  -2.6541  -2.6472  -2.6446  -2.6285  -2.6249
    -2.6129  -2.6087  -0.6731  -0.6327  -0.5810  -0.5414  -0.4958  -0.4664
    -0.4560  -0.4212  -0.3201  -0.3001  -0.2391  -0.1729   0.0122   0.0760
     0.2483   0.2993   0.3603   0.4105   0.4663   0.4741   0.5089   0.5224
     0.5303   0.5511   0.5985   0.6108   0.6288   0.6763   0.8544   0.8881
     0.8917   0.9051   0.9706   1.0053   1.0268   1.0344   1.0624   1.0843
     1.0934   1.1174   1.1412   1.1646   1.2449   1.2591   1.2803   1.2936
     1.3124   1.3263   1.3602   1.3635   1.3887   1.3892   1.4250   1.4277
     1.4703   1.4842   1.4940   1.5029   1.5093   1.5255   1.5720   1.5798
     1.6311   1.6323   1.6660   1.7144   1.7175   1.7819   1.7956   1.8060
     1.8530   1.8556   2.0363   2.0835

          k =-0.1250-0.3737 0.1223 (297575 PWs)   bands (ev):

   -17.7612 -17.7521 -17.4580 -17.4576 -17.4420 -17.4303 -17.3458 -17.3414
   -15.6190 -15.6167 -14.1137 -14.1118 -14.1012 -14.1007 -14.0905 -14.0879
   -14.0868 -14.0857 -14.0829 -14.0815 -14.0770 -14.0753 -14.0684 -14.0673
   -14.0666 -14.0662 -14.0657 -14.0655 -14.0641 -14.0628 -14.0604 -14.0600
   -14.0599 -14.0595 -14.0533 -14.0505 -14.0461 -14.0456 -14.0451 -14.0438
   -14.0437 -14.0424 -14.0415 -14.0414 -14.0412 -14.0386 -14.0300 -14.0298
   -14.0293 -14.0263 -10.4084 -10.4083 -10.3892 -10.3812 -10.3337 -10.3322
    -9.6207  -9.6184  -9.4738  -9.4227  -9.3567  -9.2976  -9.2907  -9.2489
    -9.2072  -9.1994  -9.1370  -9.1289  -9.0646  -9.0543  -9.0147  -9.0056
    -8.9840  -8.9618  -8.9563  -8.9425  -8.8793  -8.8678  -8.8560  -8.8261
    -8.8166  -8.8006  -7.6078  -7.5974  -7.0251  -7.0235  -6.9008  -6.9002
    -6.8716  -6.8687  -6.8437  -6.8321  -6.8173  -6.8124  -6.7947  -6.7927
    -6.7525  -6.7495  -5.6094  -5.4362  -5.2851  -5.2783  -5.1743  -5.1506
    -5.0110  -4.9849  -4.7884  -4.7651  -4.7503  -4.7408  -4.7080  -4.6844
    -4.6540  -4.5392  -3.7304  -3.7254  -3.1801  -3.1754  -2.6920  -2.6844
    -2.6651  -2.6616  -2.6513  -2.6470  -2.6431  -2.6398  -2.6344  -2.6308
    -2.6250  -2.6197  -0.7683  -0.7497  -0.6560  -0.6249  -0.6003  -0.5703
    -0.5249  -0.4645  -0.2928  -0.1684  -0.1021  -0.0415   0.0764   0.0841
     0.1908   0.3380   0.3922   0.4303   0.4367   0.4717   0.5203   0.5643
     0.5719   0.5981   0.6384   0.6820   0.7362   0.7931   0.8335   0.8590
     0.8913   0.9090   1.0024   1.0052   1.0327   1.0577   1.0853   1.0898
     1.1129   1.1157   1.1599   1.1810   1.1944   1.2010   1.2316   1.2491
     1.2674   1.2886   1.3207   1.3444   1.3665   1.3754   1.4138   1.4247
     1.4438   1.4712   1.4815   1.5229   1.5659   1.5750   1.5899   1.5938
     1.6035   1.6294   1.6707   1.6998   1.7597   1.8209   1.8300   1.8382
     1.8751   1.8834   2.0102   2.0706

          k =-0.1250 0.3737-0.1223 (297575 PWs)   bands (ev):

   -17.7612 -17.7521 -17.4580 -17.4576 -17.4420 -17.4303 -17.3458 -17.3414
   -15.6190 -15.6167 -14.1137 -14.1118 -14.1012 -14.1007 -14.0905 -14.0879
   -14.0868 -14.0857 -14.0829 -14.0815 -14.0770 -14.0753 -14.0684 -14.0673
   -14.0665 -14.0662 -14.0657 -14.0654 -14.0641 -14.0628 -14.0604 -14.0600
   -14.0599 -14.0595 -14.0533 -14.0505 -14.0461 -14.0456 -14.0451 -14.0438
   -14.0437 -14.0424 -14.0415 -14.0414 -14.0412 -14.0386 -14.0300 -14.0298
   -14.0293 -14.0263 -10.4092 -10.4079 -10.3893 -10.3812 -10.3336 -10.3316
    -9.6230  -9.6173  -9.4765  -9.4205  -9.3388  -9.3156  -9.2924  -9.2436
    -9.2148  -9.1932  -9.1354  -9.1311  -9.0774  -9.0425  -9.0139  -9.0045
    -8.9789  -8.9627  -8.9558  -8.9444  -8.8783  -8.8759  -8.8568  -8.8292
    -8.8148  -8.7951  -7.6078  -7.5973  -7.0251  -7.0236  -6.9013  -6.8997
    -6.8710  -6.8692  -6.8437  -6.8321  -6.8156  -6.8141  -6.7947  -6.7926
    -6.7523  -6.7497  -5.6099  -5.4351  -5.2850  -5.2783  -5.1761  -5.1502
    -5.0096  -4.9865  -4.7913  -4.7657  -4.7498  -4.7416  -4.7056  -4.6838
    -4.6510  -4.5406  -3.7304  -3.7253  -3.1801  -3.1754  -2.6922  -2.6845
    -2.6659  -2.6595  -2.6518  -2.6482  -2.6430  -2.6412  -2.6334  -2.6297
    -2.6245  -2.6200  -0.7765  -0.7416  -0.6576  -0.6440  -0.6033  -0.5621
    -0.5264  -0.4595  -0.2817  -0.1546  -0.0947  -0.0417   0.0795   0.0893
     0.1924   0.3108   0.3980   0.4132   0.4509   0.4888   0.4912   0.5549
     0.5818   0.5997   0.6237   0.7007   0.7366   0.7694   0.8196   0.8498
     0.8819   0.9213   0.9868   1.0145   1.0448   1.0647   1.0728   1.0887
     1.1214   1.1383   1.1571   1.1817   1.1930   1.2277   1.2296   1.2410
     1.2882   1.2928   1.3247   1.3369   1.3535   1.3778   1.4172   1.4225
     1.4589   1.4734   1.5117   1.5167   1.5315   1.5529   1.5575   1.5915
     1.6396   1.6419   1.6749   1.6959   1.7490   1.8043   1.8100   1.8529
     1.8655   1.9133   1.9988   2.0887

          k = 0.1250-0.3737-0.1223 (297575 PWs)   bands (ev):

   -17.7612 -17.7521 -17.4580 -17.4576 -17.4420 -17.4303 -17.3458 -17.3414
   -15.6190 -15.6167 -14.1137 -14.1118 -14.1012 -14.1007 -14.0905 -14.0879
   -14.0868 -14.0857 -14.0829 -14.0815 -14.0770 -14.0753 -14.0684 -14.0673
   -14.0665 -14.0662 -14.0657 -14.0654 -14.0641 -14.0628 -14.0604 -14.0600
   -14.0599 -14.0595 -14.0533 -14.0505 -14.0461 -14.0456 -14.0451 -14.0438
   -14.0437 -14.0424 -14.0415 -14.0414 -14.0412 -14.0386 -14.0300 -14.0298
   -14.0293 -14.0263 -10.4092 -10.4079 -10.3893 -10.3812 -10.3337 -10.3316
    -9.6229  -9.6173  -9.4771  -9.4195  -9.3387  -9.3157  -9.2930  -9.2422
    -9.2147  -9.1964  -9.1363  -9.1275  -9.0777  -9.0415  -9.0140  -9.0061
    -8.9796  -8.9626  -8.9553  -8.9447  -8.8782  -8.8754  -8.8567  -8.8277
    -8.8166  -8.7948  -7.6078  -7.5973  -7.0251  -7.0236  -6.9013  -6.8997
    -6.8710  -6.8693  -6.8437  -6.8321  -6.8156  -6.8141  -6.7948  -6.7926
    -6.7523  -6.7496  -5.6098  -5.4352  -5.2850  -5.2784  -5.1756  -5.1502
    -5.0103  -4.9861  -4.7915  -4.7657  -4.7498  -4.7415  -4.7057  -4.6837
    -4.6506  -4.5409  -3.7304  -3.7253  -3.1801  -3.1754  -2.6931  -2.6844
    -2.6653  -2.6587  -2.6517  -2.6472  -2.6439  -2.6405  -2.6338  -2.6310
    -2.6242  -2.6199  -0.7758  -0.7405  -0.6568  -0.6456  -0.6027  -0.5620
    -0.5284  -0.4594  -0.2824  -0.1554  -0.0940  -0.0417   0.0795   0.0896
     0.1920   0.3108   0.3978   0.4123   0.4524   0.4881   0.4921   0.5589
     0.5801   0.5990   0.6234   0.7017   0.7359   0.7709   0.8196   0.8513
     0.8823   0.9179   0.9860   1.0187   1.0472   1.0619   1.0745   1.0849
     1.1202   1.1356   1.1564   1.1834   1.1911   1.2291   1.2300   1.2421
     1.2899   1.2926   1.3303   1.3370   1.3467   1.3769   1.4170   1.4199
     1.4595   1.4744   1.5119   1.5131   1.5346   1.5519   1.5599   1.5933
     1.6374   1.6420   1.6772   1.6953   1.7480   1.8041   1.8101   1.8525
     1.8671   1.9117   1.9998   2.0885

          k =-0.1250-0.3737 0.3668 (297554 PWs)   bands (ev):

   -17.7612 -17.7521 -17.4580 -17.4576 -17.4420 -17.4303 -17.3458 -17.3414
   -15.6190 -15.6167 -14.1115 -14.1092 -14.1034 -14.1033 -14.0902 -14.0874
   -14.0851 -14.0846 -14.0827 -14.0806 -14.0793 -14.0776 -14.0684 -14.0673
   -14.0666 -14.0662 -14.0657 -14.0654 -14.0641 -14.0628 -14.0604 -14.0600
   -14.0599 -14.0595 -14.0533 -14.0505 -14.0461 -14.0456 -14.0451 -14.0438
   -14.0437 -14.0423 -14.0415 -14.0414 -14.0412 -14.0386 -14.0300 -14.0298
   -14.0293 -14.0263 -10.4082 -10.4082 -10.3892 -10.3812 -10.3337 -10.3322
    -9.6155  -9.6144  -9.4526  -9.4245  -9.3526  -9.3234  -9.3164  -9.2833
    -9.2472  -9.2309  -9.0652  -9.0585  -9.0383  -9.0323  -9.0216  -9.0114
    -8.9852  -8.9776  -8.9407  -8.9351  -8.9066  -8.8859  -8.8562  -8.8391
    -8.8118  -8.8061  -7.6081  -7.5977  -7.0251  -7.0236  -6.8988  -6.8983
    -6.8715  -6.8691  -6.8434  -6.8319  -6.8131  -6.8098  -6.7999  -6.7972
    -6.7521  -6.7495  -5.4897  -5.3248  -5.3061  -5.2817  -5.2683  -5.1306
    -5.0625  -4.9133  -4.8855  -4.7867  -4.7508  -4.7479  -4.7284  -4.7031
    -4.6654  -4.6413  -3.7306  -3.7256  -3.1800  -3.1755  -2.6915  -2.6840
    -2.6693  -2.6645  -2.6553  -2.6498  -2.6468  -2.6429  -2.6323  -2.6292
    -2.6126  -2.6095  -0.6016  -0.5777  -0.5319  -0.5007  -0.4074  -0.3633
    -0.2998  -0.2254  -0.2101  -0.1619  -0.1013  -0.0707   0.0603   0.0675
     0.2101   0.2163   0.2995   0.3304   0.3781   0.4027   0.4160   0.4561
     0.5019   0.5192   0.5588   0.5710   0.7062   0.7164   0.7681   0.8020
     0.8414   0.8438   0.9106   0.9115   0.9410   0.9439   1.0261   1.0413
     1.0673   1.0691   1.1341   1.1442   1.1568   1.1724   1.2475   1.2610
     1.3104   1.3144   1.3428   1.3580   1.3892   1.4061   1.4371   1.4594
     1.4929   1.4947   1.5030   1.5117   1.5467   1.5603   1.5783   1.5797
     1.6045   1.6261   1.6643   1.6760   1.7183   1.7359   1.8040   1.8197
     1.8472   1.8511   1.8875   1.9069

          k =-0.1250 0.3737-0.3668 (297554 PWs)   bands (ev):

   -17.7612 -17.7521 -17.4580 -17.4576 -17.4420 -17.4303 -17.3458 -17.3414
   -15.6190 -15.6167 -14.1115 -14.1092 -14.1034 -14.1033 -14.0902 -14.0874
   -14.0851 -14.0846 -14.0827 -14.0806 -14.0793 -14.0776 -14.0684 -14.0673
   -14.0665 -14.0662 -14.0657 -14.0654 -14.0641 -14.0628 -14.0604 -14.0600
   -14.0599 -14.0595 -14.0533 -14.0505 -14.0461 -14.0456 -14.0451 -14.0438
   -14.0437 -14.0423 -14.0415 -14.0414 -14.0412 -14.0386 -14.0300 -14.0298
   -14.0293 -14.0263 -10.4087 -10.4082 -10.3892 -10.3812 -10.3335 -10.3319
    -9.6165  -9.6141  -9.4555  -9.4238  -9.3512  -9.3221  -9.3056  -9.2904
    -9.2425  -9.2389  -9.0654  -9.0593  -9.0461  -9.0317  -9.0137  -9.0105
    -8.9871  -8.9733  -8.9480  -8.9303  -8.9045  -8.8833  -8.8642  -8.8452
    -8.8080  -8.8013  -7.6080  -7.5977  -7.0251  -7.0236  -6.8990  -6.8981
    -6.8713  -6.8692  -6.8435  -6.8318  -6.8125  -6.8104  -6.7998  -6.7974
    -6.7520  -6.7495  -5.4895  -5.3245  -5.3042  -5.2825  -5.2693  -5.1309
    -5.0648  -4.9123  -4.8874  -4.7826  -4.7513  -4.7486  -4.7270  -4.7053
    -4.6638  -4.6419  -3.7306  -3.7255  -3.1800  -3.1755  -2.6916  -2.6842
    -2.6691  -2.6636  -2.6552  -2.6521  -2.6457  -2.6432  -2.6324  -2.6287
    -2.6126  -2.6093  -0.6180  -0.5870  -0.5320  -0.4939  -0.4033  -0.3525
    -0.2981  -0.2315  -0.2045  -0.1391  -0.0982  -0.0691   0.0633   0.0685
     0.2075   0.2114   0.2963   0.3293   0.3819   0.3852   0.4049   0.4415
     0.5119   0.5159   0.5702   0.5730   0.7121   0.7151   0.7680   0.7872
     0.8253   0.8498   0.9062   0.9166   0.9245   0.9362   1.0256   1.0279
     1.0653   1.0767   1.1364   1.1445   1.1870   1.2009   1.2486   1.2621
     1.3069   1.3281   1.3452   1.3493   1.3933   1.4001   1.4507   1.4613
     1.4753   1.4956   1.5082   1.5170   1.5377   1.5467   1.5698   1.5804
     1.6245   1.6258   1.6719   1.6835   1.7347   1.7616   1.7787   1.7849
     1.7997   1.8191   1.9225   1.9502

          k = 0.1250-0.3737-0.3668 (297554 PWs)   bands (ev):

   -17.7612 -17.7521 -17.4580 -17.4576 -17.4420 -17.4303 -17.3458 -17.3414
   -15.6190 -15.6167 -14.1115 -14.1092 -14.1034 -14.1033 -14.0902 -14.0874
   -14.0851 -14.0846 -14.0826 -14.0807 -14.0793 -14.0776 -14.0684 -14.0673
   -14.0665 -14.0662 -14.0657 -14.0654 -14.0641 -14.0628 -14.0604 -14.0600
   -14.0599 -14.0595 -14.0533 -14.0505 -14.0461 -14.0456 -14.0451 -14.0438
   -14.0437 -14.0423 -14.0415 -14.0414 -14.0412 -14.0386 -14.0300 -14.0298
   -14.0293 -14.0263 -10.4087 -10.4082 -10.3892 -10.3812 -10.3335 -10.3319
    -9.6162  -9.6144  -9.4576  -9.4203  -9.3531  -9.3223  -9.3063  -9.2877
    -9.2443  -9.2388  -9.0677  -9.0549  -9.0452  -9.0302  -9.0163  -9.0123
    -8.9852  -8.9765  -8.9475  -8.9295  -8.9046  -8.8833  -8.8636  -8.8447
    -8.8096  -8.8004  -7.6080  -7.5977  -7.0251  -7.0236  -6.8988  -6.8983
    -6.8713  -6.8693  -6.8434  -6.8318  -6.8125  -6.8103  -6.7998  -6.7974
    -6.7520  -6.7495  -5.4893  -5.3283  -5.3014  -5.2826  -5.2680  -5.1313
    -5.0642  -4.9171  -4.8831  -4.7826  -4.7513  -4.7485  -4.7272  -4.7049
    -4.6633  -4.6427  -3.7306  -3.7255  -3.1800  -3.1755  -2.6926  -2.6838
    -2.6688  -2.6637  -2.6543  -2.6512  -2.6461  -2.6431  -2.6326  -2.6294
    -2.6128  -2.6091  -0.6192  -0.5824  -0.5355  -0.4914  -0.4041  -0.3509
    -0.2974  -0.2332  -0.2065  -0.1454  -0.0974  -0.0698   0.0646   0.0689
     0.2088   0.2103   0.3023   0.3358   0.3751   0.3824   0.4062   0.4478
     0.5064   0.5166   0.5711   0.5727   0.7083   0.7189   0.7670   0.7850
     0.8277   0.8564   0.9004   0.9139   0.9212   0.9393   1.0275   1.0312
     1.0665   1.0706   1.1334   1.1468   1.1831   1.2056   1.2470   1.2599
     1.3159   1.3243   1.3461   1.3489   1.3905   1.3979   1.4536   1.4598
     1.4797   1.4981   1.5033   1.5142   1.5399   1.5478   1.5701   1.5810
     1.6225   1.6250   1.6727   1.6848   1.7348   1.7557   1.7844   1.7852
     1.7966   1.8208   1.9226   1.9503

          k =-0.3750-0.1246 0.1223 (297576 PWs)   bands (ev):

   -17.7612 -17.7521 -17.4580 -17.4576 -17.4420 -17.4303 -17.3458 -17.3414
   -15.6190 -15.6167 -14.1136 -14.1118 -14.1011 -14.1006 -14.0901 -14.0882
   -14.0863 -14.0856 -14.0830 -14.0817 -14.0774 -14.0755 -14.0684 -14.0670
   -14.0668 -14.0664 -14.0657 -14.0653 -14.0638 -14.0630 -14.0604 -14.0600
   -14.0599 -14.0594 -14.0533 -14.0505 -14.0461 -14.0456 -14.0451 -14.0438
   -14.0437 -14.0423 -14.0415 -14.0414 -14.0412 -14.0386 -14.0300 -14.0298
   -14.0293 -14.0263 -10.4086 -10.4085 -10.3893 -10.3813 -10.3338 -10.3322
    -9.6102  -9.6091  -9.4914  -9.4471  -9.3499  -9.2998  -9.2850  -9.2409
    -9.2057  -9.1967  -9.1330  -9.1271  -9.0773  -9.0606  -8.9917  -8.9879
    -8.9756  -8.9740  -8.9598  -8.9549  -8.8778  -8.8680  -8.8643  -8.8235
    -8.8163  -8.8032  -7.6083  -7.5979  -7.0256  -7.0241  -6.9011  -6.9004
    -6.8718  -6.8694  -6.8437  -6.8320  -6.8163  -6.8112  -6.7938  -6.7919
    -6.7523  -6.7496  -5.6058  -5.4268  -5.2856  -5.2788  -5.1840  -5.1489
    -5.0161  -4.9764  -4.7864  -4.7636  -4.7528  -4.7449  -4.7116  -4.6835
    -4.6580  -4.5455  -3.7307  -3.7256  -3.1801  -3.1755  -2.6958  -2.6885
    -2.6683  -2.6647  -2.6504  -2.6479  -2.6413  -2.6388  -2.6320  -2.6288
    -2.6216  -2.6172  -0.7825  -0.7702  -0.6428  -0.6174  -0.5990  -0.5623
    -0.4323  -0.3952  -0.2797  -0.2359  -0.1695  -0.0908   0.0406   0.1299
     0.2258   0.3475   0.4010   0.4318   0.4381   0.4880   0.4920   0.5409
     0.5756   0.5958   0.6520   0.6824   0.7383   0.7802   0.8381   0.8790
     0.8852   0.9594   0.9831   1.0034   1.0125   1.0703   1.1020   1.1079
     1.1389   1.1450   1.1649   1.1660   1.1845   1.1992   1.2379   1.2556
     1.2883   1.3196   1.3293   1.3359   1.3582   1.3698   1.3865   1.3938
     1.4030   1.4104   1.4917   1.4961   1.5390   1.5408   1.5896   1.5925
     1.5996   1.6219   1.6682   1.7110   1.7582   1.8060   1.8525   1.8572
     1.8726   1.9102   1.9956   2.0612

          k =-0.3750 0.1246-0.1223 (297576 PWs)   bands (ev):

   -17.7612 -17.7521 -17.4580 -17.4576 -17.4420 -17.4303 -17.3458 -17.3414
   -15.6190 -15.6167 -14.1136 -14.1118 -14.1011 -14.1006 -14.0901 -14.0882
   -14.0863 -14.0856 -14.0830 -14.0817 -14.0774 -14.0755 -14.0685 -14.0670
   -14.0668 -14.0664 -14.0657 -14.0653 -14.0638 -14.0630 -14.0604 -14.0600
   -14.0599 -14.0594 -14.0533 -14.0505 -14.0461 -14.0456 -14.0451 -14.0438
   -14.0437 -14.0423 -14.0415 -14.0414 -14.0412 -14.0386 -14.0300 -14.0298
   -14.0293 -14.0263 -10.4094 -10.4081 -10.3893 -10.3813 -10.3338 -10.3316
    -9.6118  -9.6087  -9.4963  -9.4399  -9.3401  -9.3126  -9.2847  -9.2371
    -9.2106  -9.1953  -9.1332  -9.1258  -9.0876  -9.0504  -8.9919  -8.9864
    -8.9778  -8.9674  -8.9615  -8.9540  -8.8825  -8.8730  -8.8645  -8.8255
    -8.8156  -8.7970  -7.6083  -7.5978  -7.0257  -7.0241  -6.9015  -6.9000
    -6.8715  -6.8697  -6.8437  -6.8320  -6.8144  -6.8131  -6.7939  -6.7919
    -6.7522  -6.7496  -5.6062  -5.4257  -5.2855  -5.2788  -5.1858  -5.1484
    -5.0149  -4.9777  -4.7898  -4.7647  -4.7522  -4.7450  -4.7101  -4.6825
    -4.6539  -4.5471  -3.7306  -3.7256  -3.1801  -3.1755  -2.6959  -2.6886
    -2.6691  -2.6630  -2.6512  -2.6479  -2.6423  -2.6384  -2.6310  -2.6292
    -2.6207  -2.6175  -0.7887  -0.7650  -0.6399  -0.6379  -0.6041  -0.5513
    -0.4421  -0.3913  -0.2648  -0.2283  -0.1580  -0.0783   0.0372   0.1344
     0.2268   0.3183   0.4089   0.4182   0.4401   0.4743   0.4992   0.5320
     0.5834   0.5999   0.6491   0.6920   0.7393   0.7688   0.8217   0.8395
     0.9184   0.9370   0.9874   1.0105   1.0407   1.0467   1.0943   1.1288
     1.1325   1.1421   1.1631   1.1746   1.2038   1.2045   1.2484   1.2593
     1.2839   1.3151   1.3329   1.3453   1.3568   1.3732   1.3818   1.3932
     1.4106   1.4147   1.4963   1.5172   1.5212   1.5479   1.5517   1.5722
     1.6073   1.6402   1.6826   1.6933   1.7456   1.8105   1.8506   1.8559
     1.8674   1.9253   1.9805   2.0809

          k = 0.3750-0.1246-0.1223 (297576 PWs)   bands (ev):

   -17.7612 -17.7521 -17.4580 -17.4576 -17.4420 -17.4303 -17.3458 -17.3414
   -15.6190 -15.6167 -14.1136 -14.1118 -14.1011 -14.1006 -14.0901 -14.0882
   -14.0863 -14.0856 -14.0830 -14.0817 -14.0774 -14.0755 -14.0685 -14.0670
   -14.0668 -14.0664 -14.0657 -14.0653 -14.0638 -14.0630 -14.0604 -14.0600
   -14.0599 -14.0594 -14.0533 -14.0505 -14.0461 -14.0456 -14.0451 -14.0438
   -14.0437 -14.0423 -14.0415 -14.0414 -14.0412 -14.0386 -14.0300 -14.0298
   -14.0293 -14.0263 -10.4094 -10.4081 -10.3893 -10.3813 -10.3337 -10.3317
    -9.6116  -9.6087  -9.4965  -9.4402  -9.3401  -9.3114  -9.2834  -9.2410
    -9.2136  -9.1899  -9.1322  -9.1287  -9.0864  -9.0492  -8.9918  -8.9890
    -8.9750  -8.9705  -8.9659  -8.9483  -8.8797  -8.8757  -8.8646  -8.8249
    -8.8161  -8.7970  -7.6083  -7.5978  -7.0257  -7.0241  -6.9017  -6.8999
    -6.8714  -6.8698  -6.8436  -6.8320  -6.8145  -6.8131  -6.7939  -6.7919
    -6.7523  -6.7496  -5.6062  -5.4256  -5.2856  -5.2788  -5.1861  -5.1480
    -5.0153  -4.9773  -4.7893  -4.7648  -4.7522  -4.7451  -4.7103  -4.6825
    -4.6542  -4.5471  -3.7306  -3.7256  -3.1801  -3.1755  -2.6967  -2.6886
    -2.6682  -2.6631  -2.6501  -2.6481  -2.6418  -2.6391  -2.6315  -2.6291
    -2.6206  -2.6178  -0.7879  -0.7643  -0.6410  -0.6391  -0.6024  -0.5517
    -0.4420  -0.3912  -0.2667  -0.2271  -0.1605  -0.0772   0.0363   0.1342
     0.2282   0.3185   0.4097   0.4183   0.4435   0.4747   0.4954   0.5347
     0.5819   0.5985   0.6476   0.6911   0.7406   0.7708   0.8230   0.8382
     0.9219   0.9385   0.9840   1.0092   1.0398   1.0449   1.0972   1.1282
     1.1329   1.1396   1.1655   1.1786   1.2005   1.2047   1.2528   1.2599
     1.2843   1.3115   1.3294   1.3459   1.3595   1.3751   1.3772   1.3946
     1.4037   1.4173   1.4968   1.5198   1.5232   1.5392   1.5497   1.5761
     1.6078   1.6431   1.6823   1.6942   1.7420   1.8113   1.8499   1.8591
     1.8681   1.9255   1.9788   2.0815

          k =-0.3750-0.1246 0.3668 (297637 PWs)   bands (ev):

   -17.7612 -17.7521 -17.4580 -17.4576 -17.4420 -17.4303 -17.3458 -17.3414
   -15.6190 -15.6167 -14.1115 -14.1092 -14.1033 -14.1032 -14.0899 -14.0874
   -14.0851 -14.0836 -14.0831 -14.0811 -14.0798 -14.0777 -14.0684 -14.0670
   -14.0668 -14.0665 -14.0657 -14.0653 -14.0638 -14.0630 -14.0604 -14.0601
   -14.0599 -14.0594 -14.0533 -14.0505 -14.0461 -14.0456 -14.0451 -14.0438
   -14.0437 -14.0423 -14.0415 -14.0414 -14.0412 -14.0386 -14.0300 -14.0298
   -14.0293 -14.0263 -10.4083 -10.4083 -10.3894 -10.3814 -10.3338 -10.3323
    -9.6078  -9.6069  -9.4595  -9.4156  -9.3959  -9.3489  -9.2964  -9.2670
    -9.2422  -9.2276  -9.0609  -9.0563  -9.0307  -9.0277  -9.0049  -9.0040
    -8.9959  -8.9860  -8.9413  -8.9384  -8.9078  -8.8933  -8.8559  -8.8367
    -8.8148  -8.8087  -7.6087  -7.5983  -7.0257  -7.0241  -6.8991  -6.8983
    -6.8716  -6.8699  -6.8434  -6.8316  -6.8122  -6.8081  -6.7995  -6.7967
    -6.7518  -6.7494  -5.4858  -5.3175  -5.2975  -5.2821  -5.2722  -5.1227
    -5.0728  -4.9132  -4.8997  -4.7888  -4.7502  -4.7470  -4.7316  -4.7047
    -4.6649  -4.6434  -3.7308  -3.7257  -3.1801  -3.1755  -2.6920  -2.6845
    -2.6733  -2.6688  -2.6564  -2.6509  -2.6474  -2.6414  -2.6273  -2.6239
    -2.6131  -2.6100  -0.5898  -0.5545  -0.5139  -0.4950  -0.3591  -0.3295
    -0.3119  -0.2531  -0.2156  -0.2039  -0.1098  -0.0988   0.0346   0.0460
     0.2354   0.2584   0.3187   0.3208   0.3585   0.3887   0.4208   0.4514
     0.4759   0.5216   0.5819   0.5963   0.7219   0.7243   0.7843   0.8011
     0.8500   0.8554   0.9278   0.9370   0.9693   0.9789   1.0000   1.0386
     1.0558   1.0768   1.0827   1.1160   1.1537   1.1726   1.2366   1.2880
     1.3119   1.3320   1.3648   1.3704   1.3742   1.3936   1.4100   1.4126
     1.4666   1.4799   1.4981   1.5064   1.5202   1.5268   1.5784   1.5804
     1.5933   1.6175   1.6555   1.6806   1.7429   1.7459   1.7900   1.7966
     1.8390   1.8516   1.9148   1.9351

          k =-0.3750 0.1246-0.3668 (297637 PWs)   bands (ev):

   -17.7612 -17.7521 -17.4580 -17.4576 -17.4420 -17.4303 -17.3458 -17.3414
   -15.6190 -15.6167 -14.1115 -14.1092 -14.1033 -14.1032 -14.0899 -14.0874
   -14.0851 -14.0836 -14.0831 -14.0811 -14.0798 -14.0777 -14.0685 -14.0670
   -14.0668 -14.0665 -14.0657 -14.0653 -14.0638 -14.0631 -14.0604 -14.0601
   -14.0599 -14.0594 -14.0533 -14.0505 -14.0461 -14.0456 -14.0451 -14.0438
   -14.0437 -14.0423 -14.0415 -14.0414 -14.0412 -14.0386 -14.0300 -14.0298
   -14.0293 -14.0263 -10.4088 -10.4082 -10.3894 -10.3814 -10.3335 -10.3319
    -9.6084  -9.6069  -9.4647  -9.4058  -9.4018  -9.3449  -9.2879  -9.2754
    -9.2388  -9.2336  -9.0616  -9.0565  -9.0371  -9.0218  -9.0075  -9.0030
    -8.9934  -8.9824  -8.9496  -8.9303  -8.9099  -8.8891  -8.8636  -8.8439
    -8.8104  -8.8032  -7.6086  -7.5983  -7.0257  -7.0242  -6.8988  -6.8986
    -6.8718  -6.8697  -6.8434  -6.8316  -6.8112  -6.8091  -6.7993  -6.7969
    -6.7518  -6.7494  -5.4855  -5.3158  -5.2975  -5.2830  -5.2731  -5.1227
    -5.0747  -4.9119  -4.9030  -4.7843  -4.7503  -4.7484  -4.7299  -4.7067
    -4.6629  -4.6446  -3.7308  -3.7257  -3.1801  -3.1755  -2.6922  -2.6844
    -2.6730  -2.6689  -2.6561  -2.6509  -2.6487  -2.6406  -2.6278  -2.6232
    -2.6135  -2.6096  -0.6010  -0.5712  -0.5048  -0.4994  -0.3528  -0.3222
    -0.3036  -0.2606  -0.2139  -0.1891  -0.0948  -0.0890   0.0322   0.0490
     0.2215   0.2608   0.3095   0.3215   0.3510   0.3592   0.4351   0.4426
     0.4972   0.5043   0.5905   0.6016   0.7169   0.7232   0.7940   0.8011
     0.8460   0.8577   0.9119   0.9147   0.9404   0.9605   1.0358   1.0437
     1.0542   1.0593   1.0825   1.1118   1.1949   1.2144   1.2474   1.2693
     1.3213   1.3348   1.3462   1.3611   1.3834   1.3949   1.4155   1.4214
     1.4562   1.4747   1.4923   1.5008   1.5387   1.5443   1.5725   1.5766
     1.6044   1.6083   1.6665   1.6878   1.7381   1.7439   1.7671   1.7765
     1.8221   1.8386   1.9380   1.9596

          k = 0.3750-0.1246-0.3668 (297637 PWs)   bands (ev):

   -17.7612 -17.7521 -17.4580 -17.4576 -17.4420 -17.4303 -17.3458 -17.3414
   -15.6190 -15.6167 -14.1115 -14.1092 -14.1033 -14.1032 -14.0899 -14.0874
   -14.0851 -14.0836 -14.0831 -14.0811 -14.0798 -14.0777 -14.0685 -14.0670
   -14.0668 -14.0665 -14.0657 -14.0653 -14.0638 -14.0631 -14.0604 -14.0601
   -14.0599 -14.0594 -14.0533 -14.0505 -14.0461 -14.0456 -14.0451 -14.0438
   -14.0437 -14.0423 -14.0415 -14.0414 -14.0412 -14.0386 -14.0300 -14.0298
   -14.0293 -14.0263 -10.4088 -10.4082 -10.3894 -10.3814 -10.3335 -10.3319
    -9.6082  -9.6071  -9.4650  -9.4088  -9.3988  -9.3436  -9.2870  -9.2778
    -9.2365  -9.2357  -9.0611  -9.0556  -9.0355  -9.0224  -9.0078  -9.0040
    -8.9923  -8.9856  -8.9516  -8.9267  -8.9087  -8.8900  -8.8647  -8.8431
    -8.8107  -8.8031  -7.6086  -7.5983  -7.0257  -7.0242  -6.8993  -6.8981
    -6.8718  -6.8698  -6.8433  -6.8316  -6.8113  -6.8090  -6.7993  -6.7970
    -6.7519  -6.7493  -5.4855  -5.3166  -5.2966  -5.2830  -5.2730  -5.1231
    -5.0750  -4.9121  -4.9015  -4.7847  -4.7505  -4.7484  -4.7305  -4.7063
    -4.6632  -4.6443  -3.7308  -3.7257  -3.1801  -3.1755  -2.6930  -2.6848
    -2.6727  -2.6677  -2.6559  -2.6518  -2.6464  -2.6419  -2.6274  -2.6241
    -2.6130  -2.6101  -0.6028  -0.5661  -0.5099  -0.4963  -0.3527  -0.3198
    -0.3022  -0.2580  -0.2132  -0.1982  -0.1029  -0.0882   0.0308   0.0502
     0.2278   0.2664   0.3088   0.3238   0.3563   0.3587   0.4276   0.4383
     0.5007   0.5034   0.5909   0.6001   0.7171   0.7250   0.7936   0.8001
     0.8435   0.8597   0.9111   0.9170   0.9382   0.9616   1.0385   1.0434
     1.0548   1.0601   1.0847   1.1044   1.1982   1.2187   1.2424   1.2718
     1.3195   1.3290   1.3449   1.3601   1.3914   1.3919   1.4149   1.4201
     1.4575   1.4769   1.4925   1.5011   1.5321   1.5481   1.5698   1.5765
     1.6051   1.6098   1.6664   1.6899   1.7357   1.7411   1.7652   1.7856
     1.8266   1.8321   1.9369   1.9608

          k =-0.3750-0.3737 0.1223 (297606 PWs)   bands (ev):

   -17.7612 -17.7521 -17.4580 -17.4576 -17.4420 -17.4303 -17.3458 -17.3414
   -15.6190 -15.6167 -14.1135 -14.1117 -14.1010 -14.1005 -14.0894 -14.0873
   -14.0864 -14.0855 -14.0823 -14.0816 -14.0776 -14.0758 -14.0684 -14.0674
   -14.0669 -14.0667 -14.0663 -14.0655 -14.0640 -14.0635 -14.0604 -14.0601
   -14.0599 -14.0595 -14.0533 -14.0505 -14.0461 -14.0456 -14.0451 -14.0438
   -14.0437 -14.0424 -14.0415 -14.0414 -14.0412 -14.0386 -14.0300 -14.0298
   -14.0293 -14.0263 -10.4091 -10.4079 -10.3893 -10.3811 -10.3341 -10.3319
[...]
    -9.6122  -9.6096  -9.4361  -9.3987  -9.3689  -9.3442  -9.3162  -9.3127
    -9.2608  -9.2564  -9.0711  -9.0625  -9.0429  -9.0301  -9.0012  -8.9988
    -8.9816  -8.9780  -8.9349  -8.9071  -8.8945  -8.8805  -8.8726  -8.8594
    -8.8239  -8.8174  -7.6108  -7.6062  -7.0332  -7.0288  -6.9195  -6.9120
    -6.8747  -6.8688  -6.8399  -6.8334  -6.8228  -6.8183  -6.8095  -6.8045
    -6.7711  -6.7671  -5.3801  -5.2872  -5.2784  -5.2269  -5.1930  -5.1856
    -5.0466  -5.0333  -5.0161  -4.8721  -4.7748  -4.7689  -4.7321  -4.7213
    -4.6887  -4.6835  -3.7311  -3.7273  -3.1866  -3.1841  -2.6967  -2.6942
    -2.6752  -2.6723  -2.6562  -2.6523  -2.6440  -2.6417  -2.6325  -2.6310
    -2.6176  -2.6128  -0.4206  -0.4090  -0.3708  -0.3191  -0.2731  -0.2523
    -0.1986  -0.1825  -0.1536  -0.1082  -0.0867  -0.0552   0.0666   0.0806
     0.1602   0.2343   0.2605   0.2787   0.2867   0.3063   0.3595   0.4029
     0.4414   0.4620   0.4896   0.4921   0.7103   0.7580   0.7808   0.7889
     0.8165   0.8277   0.8640   0.8832   0.9228   0.9440   0.9585   1.0025
     1.0122   1.0424   1.0772   1.0832   1.1552   1.1758   1.1893   1.2199
     1.2391   1.2417   1.2974   1.3124   1.3530   1.3638   1.3920   1.4118
     1.4293   1.4316   1.4900   1.4929   1.5132   1.5180   1.5424   1.5735
     1.5888   1.5993   1.6599   1.6881   1.7309   1.7354   1.7669   1.7736
     1.8046   1.8208   1.8917   1.9106

          k = 0.3750-0.3737-0.3666 (297626 PWs)   bands (ev):

   -17.7674 -17.7649 -17.4824 -17.4749 -17.4382 -17.4252 -17.3712 -17.3653
   -15.6277 -15.6197 -14.1152 -14.1133 -14.1069 -14.1062 -14.0932 -14.0912
   -14.0881 -14.0871 -14.0859 -14.0847 -14.0835 -14.0824 -14.0723 -14.0712
   -14.0707 -14.0705 -14.0701 -14.0696 -14.0689 -14.0683 -14.0639 -14.0635
   -14.0635 -14.0630 -14.0572 -14.0551 -14.0494 -14.0490 -14.0490 -14.0474
   -14.0471 -14.0465 -14.0462 -14.0452 -14.0447 -14.0438 -14.0339 -14.0332
   -14.0325 -14.0314 -10.4267 -10.4219 -10.3856 -10.3770 -10.3523 -10.3484
    -9.6122  -9.6096  -9.4370  -9.3973  -9.3700  -9.3427  -9.3157  -9.3136
    -9.2619  -9.2561  -9.0712  -9.0607  -9.0431  -9.0302  -9.0020  -8.9986
    -8.9815  -8.9796  -8.9346  -8.9065  -8.8934  -8.8814  -8.8735  -8.8581
    -8.8248  -8.8170  -7.6108  -7.6062  -7.0332  -7.0288  -6.9195  -6.9120
    -6.8749  -6.8687  -6.8398  -6.8336  -6.8225  -6.8185  -6.8095  -6.8045
    -6.7712  -6.7671  -5.3799  -5.2874  -5.2785  -5.2288  -5.1895  -5.1866
    -5.0498  -5.0329  -5.0134  -4.8726  -4.7749  -4.7689  -4.7319  -4.7212
    -4.6887  -4.6836  -3.7311  -3.7273  -3.1866  -3.1841  -2.6958  -2.6944
    -2.6756  -2.6724  -2.6563  -2.6536  -2.6454  -2.6401  -2.6327  -2.6297
    -2.6176  -2.6129  -0.4172  -0.4053  -0.3741  -0.3206  -0.2730  -0.2549
    -0.1984  -0.1833  -0.1571  -0.1070  -0.0882  -0.0557   0.0669   0.0807
     0.1643   0.2373   0.2614   0.2791   0.2839   0.3094   0.3599   0.4011
     0.4413   0.4640   0.4861   0.4917   0.7075   0.7600   0.7801   0.7893
     0.8159   0.8309   0.8639   0.8826   0.9204   0.9421   0.9612   1.0036
     1.0155   1.0428   1.0745   1.0789   1.1531   1.1821   1.1917   1.2208
     1.2364   1.2389   1.2969   1.3096   1.3548   1.3652   1.3912   1.4116
     1.4296   1.4314   1.4896   1.4926   1.5118   1.5194   1.5428   1.5748
     1.5894   1.5995   1.6588   1.6894   1.7319   1.7328   1.7691   1.7698
     1.8100   1.8176   1.8917   1.9104

     highest occupied level (ev):     2.2347

!    total energy              =  -16545.23239914 Ry
     Harris-Foulkes estimate   =  -16545.23239914 Ry
     estimated scf accuracy    <          1.1E-10 Ry

     total all-electron energy =   -677464.499269 Ry

     The total energy is the sum of the following terms:

     one-electron contribution =    -837.08057498 Ry
     hartree contribution      =     609.79106952 Ry
     xc contribution           =    -765.76280356 Ry
     ewald contribution        =   -1181.38143164 Ry
     DFT-D3 Dispersion         =      -0.64785744 Ry
     one-center paw contrib.   =  -14370.15080105 Ry

     convergence has been achieved in  10 iterations

     Forces acting on atoms (cartesian axes, Ry/au):

     atom    1 type  1   force =    -0.00019468   -0.00006583    0.00059345
     atom    2 type  1   force =    -0.00034729   -0.00026515    0.00066585
     atom    3 type  1   force =    -0.00033320   -0.00006906   -0.00011253
     atom    4 type  1   force =    -0.00013389   -0.00002087    0.00001223
     atom    5 type  1   force =    -0.00007449    0.00018428    0.00011472
     atom    6 type  1   force =    -0.00037781   -0.00006148    0.00010063
     atom    7 type  1   force =    -0.00033753   -0.00010516    0.00040387
     atom    8 type  1   force =    -0.00020590   -0.00010534    0.00034008
     atom    9 type  2   force =    -0.00000912    0.00019271   -0.00007724
     atom   10 type  2   force =    -0.00040760   -0.00018663    0.00008531
     atom   11 type  2   force =     0.00020855    0.00016674   -0.00093978
     atom   12 type  2   force =     0.00040835    0.00010056    0.00018695
     atom   13 type  2   force =    -0.00060335    0.00008402    0.00022894
     atom   14 type  2   force =    -0.00044746    0.00004604   -0.00094605
     atom   15 type  2   force =     0.00032365   -0.00038715    0.00005993
     atom   16 type  2   force =     0.00001247   -0.00012557   -0.00009671
     atom   17 type  2   force =     0.00011666    0.00025248   -0.00003601
     atom   18 type  2   force =     0.00007992   -0.00042504    0.00024278
     atom   19 type  2   force =    -0.00002589    0.00000316    0.00044952
     atom   20 type  2   force =     0.00007975   -0.00010251    0.00001285
     atom   21 type  2   force =     0.00005278   -0.00032766    0.00034649
     atom   22 type  2   force =     0.00004264   -0.00030868    0.00037098
     atom   23 type  2   force =     0.00013100   -0.00010290   -0.00013703
     atom   24 type  2   force =     0.00041198   -0.00047340    0.00019736
     atom   25 type  2   force =     0.00003901   -0.00015209   -0.00010653
     atom   26 type  2   force =     0.00000649    0.00019821   -0.00024167
     atom   27 type  2   force =     0.00039399    0.00015536    0.00017171
     atom   28 type  2   force =    -0.00058436   -0.00024407    0.00013567
     atom   29 type  2   force =    -0.00043397    0.00019453   -0.00049841
     atom   30 type  2   force =     0.00011073    0.00016254   -0.00012924
     atom   31 type  2   force =    -0.00050985   -0.00007921   -0.00004114
     atom   32 type  2   force =     0.00014035    0.00006841   -0.00052060
     atom   33 type  3   force =     0.00136903    0.00037742   -0.00000118
     atom   34 type  3   force =     0.00021878   -0.00001311   -0.00041129
     atom   35 type  3   force =    -0.00038488    0.00069537   -0.00091306
     atom   36 type  3   force =     0.00017668    0.00079283    0.00007306
     atom   37 type  3   force =     0.00016567    0.00058464    0.00000271
     atom   38 type  3   force =    -0.00020671    0.00041427   -0.00037989
     atom   39 type  3   force =    -0.00096376    0.00048155   -0.00022405
     atom   40 type  3   force =     0.00013546    0.00110966    0.00001720
     atom   41 type  4   force =    -0.00388009   -0.00090255    0.00005131
     atom   42 type  4   force =    -0.00120809    0.00157225    0.00002542
     atom   43 type  4   force =    -0.00048691    0.00028747    0.00077479
     atom   44 type  4   force =     0.00055508   -0.00066409    0.00076526
     atom   45 type  4   force =     0.00011251   -0.00088566   -0.00015901
     atom   46 type  4   force =    -0.00000137   -0.00037219   -0.00016113
     atom   47 type  4   force =     0.00046074   -0.00046778    0.00047287
     atom   48 type  4   force =     0.00187842   -0.00066097   -0.00006420
     atom   49 type  4   force =    -0.00096404   -0.00064451    0.00005009
     atom   50 type  4   force =    -0.00027898   -0.00162548    0.00007021
     atom   51 type  5   force =     0.00115924   -0.00108734   -0.00005432
     atom   52 type  5   force =     0.00036095   -0.00101274    0.00002268
     atom   53 type  5   force =     0.00098671    0.00101969    0.00001636
     atom   54 type  5   force =     0.00046669    0.00149949   -0.00004531
     atom   55 type  5   force =     0.00019680   -0.00145580    0.00006516
     atom   56 type  5   force =     0.00027259    0.00073843    0.00118226
     atom   57 type  5   force =    -0.00126474    0.00054963   -0.00068208
     atom   58 type  5   force =     0.00043691   -0.00105046   -0.00035749
     atom   59 type  5   force =    -0.00018981    0.00055709   -0.00015863
     atom   60 type  5   force =     0.00110052   -0.00020121    0.00041853
     atom   61 type  5   force =    -0.00027502   -0.00096275   -0.00063625
     atom   62 type  5   force =     0.00061117    0.00076065    0.00023367
     atom   63 type  5   force =    -0.00017276   -0.00040816   -0.00088198
     atom   64 type  5   force =     0.00180162   -0.00085961    0.00086960
     atom   65 type  5   force =    -0.00124563    0.00083846   -0.00114173
     atom   66 type  5   force =     0.00001307    0.00059774    0.00051418
     atom   67 type  5   force =    -0.00050814   -0.00047500    0.00010899
     atom   68 type  5   force =    -0.00018886    0.00001448   -0.00060845
     atom   69 type  5   force =    -0.00008408   -0.00000878    0.00039537
     atom   70 type  5   force =     0.00099819   -0.00067556    0.00007352
     atom   71 type  5   force =     0.00038747    0.00012191   -0.00035161
     atom   72 type  5   force =     0.00058126    0.00018124    0.00047860
     atom   73 type  5   force =    -0.00080405    0.00085910   -0.00003791
     atom   74 type  5   force =    -0.00000500   -0.00000554   -0.00015950
     atom   75 type  5   force =     0.00008011   -0.00009929   -0.00006871
     atom   76 type  5   force =     0.00106624   -0.00080177    0.00009568
     atom   77 type  5   force =     0.00011203    0.00015484   -0.00028293
     atom   78 type  5   force =     0.00036270    0.00019840    0.00040785
     atom   79 type  5   force =    -0.00058751    0.00064379   -0.00006866
     atom   80 type  5   force =     0.00076311    0.00073303    0.00017672
     atom   81 type  5   force =    -0.00014591   -0.00059922   -0.00054447
     atom   82 type  5   force =     0.00134557   -0.00040296    0.00046597
     atom   83 type  5   force =    -0.00102334    0.00042923   -0.00040738
     atom   84 type  5   force =     0.00027023    0.00082810    0.00010476
     atom   85 type  5   force =    -0.00079826   -0.00041649   -0.00034374
     atom   86 type  5   force =    -0.00047870    0.00074906    0.00095041
     atom   87 type  5   force =     0.00016286   -0.00005333   -0.00008438
     atom   88 type  5   force =    -0.00067059    0.00020503   -0.00066085
     atom   89 type  5   force =     0.00018872   -0.00006484    0.00031033
     atom   90 type  5   force =    -0.00088293   -0.00016212    0.00038915
     atom   91 type  5   force =     0.00051104   -0.00049021   -0.00046954
     atom   92 type  5   force =     0.00022288   -0.00021325    0.00002523
     atom   93 type  5   force =     0.00004722   -0.00009262    0.00003764
     atom   94 type  5   force =    -0.00037378    0.00072142   -0.00007944
     atom   95 type  5   force =    -0.00004028    0.00072957   -0.00002898
     atom   96 type  5   force =     0.00100403    0.00018829   -0.00001381

     Total force =     0.009987     Total SCF correction =     0.000024


     Computing stress (Cartesian axis) and pressure

          total   stress  (Ry/bohr**3)                   (kbar)     P=    0.13
   0.00000200   0.00001157   0.00000055          0.29      1.70      0.08
   0.00001157  -0.00000016  -0.00000186          1.70     -0.02     -0.27
   0.00000055  -0.00000186   0.00000078          0.08     -0.27      0.11


     number of scf cycles    =   5
     number of bfgs steps    =   4

     enthalpy old            =  -16545.2323239172 Ry
     enthalpy new            =  -16545.2323991429 Ry

     CASE: enthalpy_new < enthalpy_old

     new trust radius        =       0.0118401317 bohr
     new conv_thr            =       0.0000000010 Ry

     new unit-cell volume =  13414.65477 a.u.^3 (  1987.84672 Ang^3 )
     density =      4.16992 g/cm^3

CELL_PARAMETERS (angstrom)
  12.464326400   0.000000000   0.000000000
   0.000000000  12.506074769   0.000000000
   0.000000000   0.000000000  12.752433265

ATOMIC_POSITIONS (crystal)
Pb       0.006567390  -0.005740841   0.004669940
Pb       0.006812101  -0.005291985   0.500804929
Pb      -0.000411830   0.495541015   0.001334095
Pb      -0.000179050   0.494943891   0.504743831
Pb       0.499854749  -0.005154574   0.004789787
Pb       0.499435395  -0.004392385   0.501339890
Pb       0.506775130   0.494487123   0.000916787
Pb       0.506574913   0.494424091   0.504698958
I        0.253647920   0.069807534   0.011795660
I       -0.041823299   0.243567981  -0.026874815
I       -0.031411645   0.017911464   0.253134173
I        0.253023744   0.071165960   0.495949337
I       -0.043149997   0.243949298   0.530032474
I        0.017466986  -0.027084724   0.753180573
I        0.253649833   0.459873899   0.025209410
I        0.073023887   0.744075940   0.000705523
I       -0.010245566   0.508257450   0.253056592
I        0.254104916   0.459881735   0.480345902
I        0.072363750   0.744298205   0.505064917
I        0.022592025   0.491545588   0.752976044
I        0.754068159  -0.040760889  -0.019487574
I        0.572674552   0.244337256   0.005161818
I        0.522489671  -0.008360691   0.253023365
I        0.753551786  -0.039544351   0.525170602
I        0.572507589   0.244254944   0.500795663
I        0.489901500   0.008379828   0.753215925
I        0.753132725   0.570900616  -0.004545328
I        0.456691341   0.743955832   0.030148141
I        0.517703953   0.472857363   0.252991665
I        0.753634378   0.569691650   0.511659364
I        0.458541600   0.743678744   0.473142253
I        0.468581708   0.517819490   0.752961255
C        0.252293269   0.288414800   0.252742260
C        0.283554670   0.281274448   0.752135273
C        0.258354676   0.788162769   0.254279719
C        0.294519159   0.789078359   0.751387739
C        0.794471838   0.289158316   0.251855743
C        0.758449221   0.287865578   0.753851388
C        0.783882314   0.781063884   0.252675756
C        0.751429801   0.788338805   0.752507029
N        0.154942436   0.248124379   0.252671276
N        0.342323394   0.233687076   0.252610220
N        0.198571163   0.196937257   0.755340272
N        0.237528520   0.670366186   0.254072420
N        0.217268828   0.697895870   0.753053939
N        0.717030512   0.198109131   0.253486987
N        0.737761795   0.170035038   0.754248093
N        0.699287296   0.696233293   0.254722548
N        0.654029311   0.748053552   0.752596434
N        0.841470192   0.733682521   0.752346653
H        0.258909081   0.375219867   0.252950031
H        0.137961013   0.168259415   0.252517205
H        0.091349479   0.299425127   0.252916530
H        0.346176580   0.152193644   0.252328565
H        0.412572389   0.275772293   0.252592989
H        0.202442574   0.148137281   0.689214231
H        0.122747320   0.229880972   0.758098626
H        0.206875386   0.149355876   0.821959874
H        0.272190266   0.329450764   0.681403181
H        0.361666164   0.241564079   0.749926248
H        0.276628311   0.331179428   0.822438141
H        0.266168732   0.634102056   0.186384139
H        0.156282582   0.652295576   0.258350299
H        0.272927073   0.633417513   0.318043993
H        0.217926694   0.822951960   0.186295740
H        0.344885462   0.801114067   0.248493780
H        0.227333304   0.821657046   0.327459569
H        0.167653694   0.699493366   0.687295093
H        0.168843517   0.700816016   0.819663804
H        0.257299139   0.625428380   0.753367197
H        0.343467592   0.782833633   0.680387682
H        0.344676802   0.784360824   0.821652533
H        0.248768772   0.863701977   0.751003949
H        0.667513850   0.199729924   0.187614444
H        0.668519580   0.201181050   0.320071494
H        0.756893531   0.125606281   0.253902057
H        0.843578291   0.282729251   0.180979418
H        0.844563077   0.284423272   0.322138131
H        0.748825551   0.363885719   0.251326592
H        0.766611408   0.133432880   0.686853361
H        0.656487246   0.152000654   0.758188835
H        0.772994155   0.133352244   0.818498981
H        0.718675716   0.322234044   0.685263840
H        0.844983295   0.300774547   0.749005907
H        0.726925765   0.321750199   0.826721182
H        0.704524827   0.647837324   0.188382157
H        0.623077044   0.728388585   0.256625572
H        0.707654336   0.648090173   0.320945963
H        0.772704612   0.829707612   0.182155895
H        0.862492225   0.742100193   0.250926780
H        0.775683355   0.830378922   0.323115313
H        0.758357886   0.875071753   0.752531956
H        0.636971357   0.668158890   0.752594510
H        0.590762989   0.799794808   0.752924675
H        0.845408016   0.652269070   0.752222550
H        0.911821164   0.775561789   0.752284094



     Writing output data file 025FA2_vcrelax9.save/
     NEW-OLD atomic charge density approx. for the potential
     extrapolated charge  408.13928, renormalised to  408.00000

     total cpu time spent up to now is   109785.7 secs

     Self-consistent Calculation

     iteration #  1     ecut=   120.00 Ry     beta= 0.70
     Davidson diagonalization with overlap
     ethr =  1.00E-06,  avg # of iterations =  4.0

     Threshold (ethr) on eigenvalues was too large:
     Diagonalizing with lowered threshold

     Davidson diagonalization with overlap
     ethr =  5.70E-08,  avg # of iterations =  2.3

     total cpu time spent up to now is   114283.3 secs

     total energy              =  -16545.23232289 Ry
     Harris-Foulkes estimate   =  -16545.02062698 Ry
     estimated scf accuracy    <       0.00023355 Ry

     iteration #  2     ecut=   120.00 Ry     beta= 0.70
     Davidson diagonalization with overlap
     ethr =  5.72E-08,  avg # of iterations =  3.1

     total cpu time spent up to now is   117243.5 secs

     total energy              =  -16545.23248021 Ry
     Harris-Foulkes estimate   =  -16545.23261059 Ry
     estimated scf accuracy    <       0.00029301 Ry

     iteration #  3     ecut=   120.00 Ry     beta= 0.70
     Davidson diagonalization with overlap
     ethr =  5.72E-08,  avg # of iterations =  2.0

     total cpu time spent up to now is   119310.3 secs

     total energy              =  -16545.23251799 Ry
     Harris-Foulkes estimate   =  -16545.23251904 Ry
     estimated scf accuracy    <       0.00002614 Ry

     iteration #  4     ecut=   120.00 Ry     beta= 0.70
     Davidson diagonalization with overlap
     ethr =  6.41E-09,  avg # of iterations =  3.0

     total cpu time spent up to now is   121018.2 secs

     total energy              =  -16545.23252090 Ry
     Harris-Foulkes estimate   =  -16545.23252041 Ry
     estimated scf accuracy    <       0.00001198 Ry

     iteration #  5     ecut=   120.00 Ry     beta= 0.70
     Davidson diagonalization with overlap
     ethr =  2.94E-09,  avg # of iterations =  2.0

     total cpu time spent up to now is   122568.0 secs

     total energy              =  -16545.23252167 Ry
     Harris-Foulkes estimate   =  -16545.23252150 Ry
     estimated scf accuracy    <       0.00000529 Ry

     iteration #  6     ecut=   120.00 Ry     beta= 0.70
     Davidson diagonalization with overlap
     ethr =  1.30E-09,  avg # of iterations =  3.0

     total cpu time spent up to now is   124517.9 secs

     total energy              =  -16545.23252232 Ry
     Harris-Foulkes estimate   =  -16545.23252240 Ry
     estimated scf accuracy    <       0.00000037 Ry

     iteration #  7     ecut=   120.00 Ry     beta= 0.70
     Davidson diagonalization with overlap
