
     Program PWSCF v.6.4 starts on 21Jul2020 at 13:38:24 

     This program is part of the open-source Quantum ESPRESSO suite
     for quantum simulation of materials; please cite
         "P. Giannozzi et al., J. Phys.:Condens. Matter 21 395502 (2009);
         "P. Giannozzi et al., J. Phys.:Condens. Matter 29 465901 (2017);
          URL http://www.quantum-espresso.org", 
     in publications or presentations arising from this work. More details at
     http://www.quantum-espresso.org/quote

     Parallel version (MPI), running on    32 processors

     MPI processes distributed on     1 nodes
     R & G space division:  proc/nbgrp/npool/nimage =      32
     Waiting for input...
     Reading input from standard input

     Current dimensions of program PWSCF are:
     Max number of different atomic species (ntypx) = 10
     Max number of k-points (npk) =  40000
     Max angular momentum in pseudopotentials (lmaxx) =  3
               file Pb.pbe-dn-kjpaw_psl.1.0.0.UPF: wavefunction(s)  6S 6P 5D renormalized
               file I.pbe-n-kjpaw_psl.1.0.0.UPF: wavefunction(s)  5S renormalized
               file C.pbe-n-kjpaw_psl.1.0.0.UPF: wavefunction(s)  2S 2P renormalized
               file N.pbe-n-kjpaw_psl.1.0.0.UPF: wavefunction(s)  2S renormalized
               file H.pbe-kjpaw_psl.1.0.0.UPF: wavefunction(s)  1S renormalized

     --------------------------------------------
     Parameters for DFT-D3 Dispersion Correction:
     --------------------------------------------
       Reference C6 values for interpolation: 

         atom   Coordination number   C6
         H          0.912             6.05
         H          0.000            15.18
         C          0.000            98.23
         C          0.987            86.49
         C          1.998            58.72
         C          2.999            51.56
         C          3.984            36.41
         N          0.000            50.54
         N          0.994            44.25
         N          2.014            39.35
         N          2.990            31.16
         I          0.000           703.93
         I          0.997           717.00
         Pb         0.000          1477.63
         Pb         0.938          1266.00
         Pb         1.936          1088.91
         Pb         2.908          1048.37
         Pb         3.910           910.57

       Values used:

         atom   Coordination number  R0_AB[au]  C6      C8
         Pb         4.797            4.041    910.57 144158.42
         Pb         4.799            4.041    910.57 144158.42
         Pb         4.764            4.041    910.57 144158.51
         Pb         4.776            4.041    910.57 144158.48
         Pb         4.775            4.041    910.57 144158.48
         Pb         4.765            4.041    910.57 144158.51
         Pb         4.799            4.041    910.57 144158.42
         Pb         4.794            4.041    910.57 144158.43
         I          1.923            3.532    717.00  65855.99
         I          1.957            3.532    717.00  65856.00
         I          1.872            3.532    717.00  65855.99
         I          1.915            3.532    717.00  65855.99
         I          1.963            3.532    717.00  65856.00
         I          2.000            3.532    717.00  65856.00
         I          2.052            3.532    717.00  65856.00
         I          1.986            3.532    717.00  65856.00
         I          1.873            3.532    717.00  65855.99
         I          2.057            3.532    717.00  65856.00
         I          1.979            3.532    717.00  65856.00
         I          1.993            3.532    717.00  65856.00
         I          2.054            3.532    717.00  65856.00
         I          1.979            3.532    717.00  65856.00
         I          1.993            3.532    717.00  65856.00
         I          2.053            3.532    717.00  65856.00
         I          1.983            3.532    717.00  65856.00
         I          1.871            3.532    717.00  65855.99
         I          1.914            3.532    717.00  65855.99
         I          1.963            3.532    717.00  65856.00
         I          1.999            3.532    717.00  65856.00
         I          1.919            3.532    717.00  65855.99
         I          1.955            3.532    717.00  65856.00
         I          1.870            3.532    717.00  65855.98
         C          3.112            2.750     50.81   1469.44
         C          4.044            2.750     36.58   1058.04
         C          4.044            2.750     36.58   1058.01
         C          4.042            2.750     36.58   1058.09
         C          4.042            2.750     36.58   1058.09
         C          4.044            2.750     36.58   1058.01
         C          4.044            2.750     36.58   1058.03
         C          3.112            2.750     50.81   1469.48
         N          3.100            2.478     31.23    689.06
         N          3.103            2.478     31.23    689.03
         N          4.057            2.478     31.16    687.49
         N          4.056            2.478     31.16    687.49
         N          4.062            2.478     31.16    687.49
         N          4.062            2.478     31.16    687.49
         N          4.056            2.478     31.16    687.49
         N          4.056            2.478     31.16    687.49
         N          3.100            2.478     31.23    689.06
         N          3.102            2.478     31.23    689.04
         H          1.029            2.062      6.16     74.43
         H          1.050            2.062      6.14     74.25
         H          1.042            2.062      6.15     74.31
         H          1.024            2.062      6.16     74.47
         H          1.036            2.062      6.15     74.36
         H          1.064            2.062      6.13     74.15
         H          1.016            2.062      6.17     74.55
         H          1.065            2.062      6.13     74.14
         H          1.023            2.062      6.16     74.48
         H          1.009            2.062      6.17     74.62
         H          1.025            2.062      6.16     74.47
         H          1.040            2.062      6.15     74.34
         H          1.060            2.062      6.14     74.18
         H          1.037            2.062      6.15     74.36
         H          1.015            2.062      6.17     74.57
         H          1.014            2.062      6.17     74.57
         H          1.014            2.062      6.17     74.57
         H          1.075            2.062      6.13     74.08
         H          1.072            2.062      6.13     74.09
         H          1.046            2.062      6.15     74.29
         H          1.016            2.062      6.17     74.55
         H          1.016            2.062      6.17     74.55
         H          1.010            2.062      6.17     74.61
         H          1.074            2.062      6.13     74.08
         H          1.072            2.062      6.13     74.09
         H          1.046            2.062      6.14     74.28
         H          1.016            2.062      6.17     74.55
         H          1.016            2.062      6.17     74.55
         H          1.010            2.062      6.17     74.61
         H          1.039            2.062      6.15     74.34
         H          1.060            2.062      6.14     74.18
         H          1.037            2.062      6.15     74.36
         H          1.014            2.062      6.17     74.57
         H          1.014            2.062      6.17     74.57
         H          1.015            2.062      6.17     74.57
         H          1.064            2.062      6.13     74.15
         H          1.016            2.062      6.17     74.55
         H          1.065            2.062      6.13     74.14
         H          1.023            2.062      6.16     74.48
         H          1.009            2.062      6.17     74.63
         H          1.025            2.062      6.16     74.47
         H          1.029            2.062      6.16     74.43
         H          1.049            2.062      6.14     74.26
         H          1.042            2.062      6.15     74.31
         H          1.024            2.062      6.16     74.47
         H          1.037            2.062      6.15     74.36

         Molecular C6 ( Ry / a.u.^6 ) =   1214661.11


     Subspace diagonalization in iterative solution of the eigenvalue problem:
     a serial algorithm will be used


     Parallelization info
     --------------------
     sticks:   dense  smooth     PW     G-vecs:    dense   smooth      PW
     Min         652     652    168                73824    73824    9672
     Max         653     653    169                73829    73829    9675
     Sum       20881   20881   5397              2362429  2362429  309527



     bravais-lattice index     =            0
     lattice parameter (alat)  =      23.3238  a.u.
     unit-cell volume          =   13303.2664 (a.u.)^3
     number of atoms/cell      =           96
     number of atomic types    =            5
     number of electrons       =       408.00
     number of Kohn-Sham states=          204
     kinetic-energy cutoff     =     120.0000  Ry
     charge density cutoff     =     480.0000  Ry
     convergence threshold     =      1.0E-07
     mixing beta               =       0.7000
     number of iterations used =            8  plain     mixing
     Exchange-correlation      = SLA PW PBX PBC ( 1  4  3  4 0 0)
     nstep                     =          150


     celldm(1)=  23.323783  celldm(2)=   0.000000  celldm(3)=   0.000000
     celldm(4)=   0.000000  celldm(5)=   0.000000  celldm(6)=   0.000000

     crystal axes: (cart. coord. in units of alat)
               a(1) = (   1.000000   0.000000   0.000000 )  
               a(2) = (   0.000000   1.004166   0.000000 )  
               a(3) = (   0.000000   0.000000   1.044133 )  

     reciprocal axes: (cart. coord. in units 2 pi/alat)
               b(1) = (  1.000000  0.000000  0.000000 )  
               b(2) = (  0.000000  0.995852  0.000000 )  
               b(3) = (  0.000000  0.000000  0.957732 )  


     PseudoPot. # 1 for Pb read from file:
     ../../../../Pseudopotential/Pb.pbe-dn-kjpaw_psl.1.0.0.UPF
     MD5 check sum: 684fc8fbce61a260853528575e4d9ab7
     Pseudo is Projector augmented-wave + core cor, Zval = 14.0
     Generated using "atomic" code by A. Dal Corso v.6.3
     Shape of augmentation charge: PSQ
     Using radial grid of 1281 points,  6 beta functions with: 
                l(1) =   0
                l(2) =   0
                l(3) =   1
                l(4) =   1
                l(5) =   2
                l(6) =   2
     Q(r) pseudized with 0 coefficients 


     PseudoPot. # 2 for I  read from file:
     ../../../../Pseudopotential/I.pbe-n-kjpaw_psl.1.0.0.UPF
     MD5 check sum: cd3d296c3308a581e1559a0c8a554cb5
     Pseudo is Projector augmented-wave + core cor, Zval =  7.0
     Generated using "atomic" code by A. Dal Corso v.6.3
     Shape of augmentation charge: PSQ
     Using radial grid of 1247 points,  6 beta functions with: 
                l(1) =   0
                l(2) =   0
                l(3) =   1
                l(4) =   1
                l(5) =   2
                l(6) =   2
     Q(r) pseudized with 0 coefficients 


     PseudoPot. # 3 for C  read from file:
     ../../../../Pseudopotential/C.pbe-n-kjpaw_psl.1.0.0.UPF
     MD5 check sum: 5f16ad9a65e90284d1d834d4ab3b0f7d
     Pseudo is Projector augmented-wave + core cor, Zval =  4.0
     Generated using "atomic" code by A. Dal Corso v.6.3
     Shape of augmentation charge: PSQ
     Using radial grid of 1073 points,  4 beta functions with: 
                l(1) =   0
                l(2) =   0
                l(3) =   1
                l(4) =   1
     Q(r) pseudized with 0 coefficients 


     PseudoPot. # 4 for N  read from file:
     ../../../../Pseudopotential/N.pbe-n-kjpaw_psl.1.0.0.UPF
     MD5 check sum: 14c48229446f9f2d411169a3abcbc3fa
     Pseudo is Projector augmented-wave + core cor, Zval =  5.0
     Generated using "atomic" code by A. Dal Corso v.6.3
     Shape of augmentation charge: PSQ
     Using radial grid of 1085 points,  4 beta functions with: 
                l(1) =   0
                l(2) =   0
                l(3) =   1
                l(4) =   1
     Q(r) pseudized with 0 coefficients 


     PseudoPot. # 5 for H  read from file:
     ../../../../Pseudopotential/H.pbe-kjpaw_psl.1.0.0.UPF
     MD5 check sum: d81a744832360e4a8af0b0b5b123bc2a
     Pseudo is Projector augmented-wave, Zval =  1.0
     Generated using "atomic" code by A. Dal Corso v.6.3MaX
     Shape of augmentation charge: PSQ
     Using radial grid of  929 points,  2 beta functions with: 
                l(1) =   0
                l(2) =   0
     Q(r) pseudized with 0 coefficients 


     atomic species   valence    mass     pseudopotential
        Pb            14.00   207.97600     Pb( 1.00)
        I              7.00   126.90400     I ( 1.00)
        C              4.00    12.00000     C ( 1.00)
        N              5.00    14.00300     N ( 1.00)
        H              1.00     1.00700     H ( 1.00)

     No symmetry found



   Cartesian axes

     site n.     atom                  positions (alat units)
         1           Pb  tau(   1) = (   0.0017491  -0.0086998   0.0031668  )
         2           Pb  tau(   2) = (   0.0024189  -0.0078464   0.5239133  )
         3           Pb  tau(   3) = (  -0.0016731   0.4965110   0.0005245  )
         4           Pb  tau(   4) = (  -0.0019821   0.4963674   0.5284504  )
         5           Pb  tau(   5) = (   0.4976589  -0.0059388   0.0063625  )
         6           Pb  tau(   6) = (   0.4983124  -0.0054179   0.5224629  )
         7           Pb  tau(   7) = (   0.5024460   0.4938725   0.0022138  )
         8           Pb  tau(   8) = (   0.5018053   0.4936204   0.5256205  )
         9           I   tau(   9) = (   0.2489056   0.0739225   0.0080358  )
        10           I   tau(  10) = (  -0.0606582   0.2400610  -0.0285064  )
        11           I   tau(  11) = (  -0.0249456   0.0159932   0.2656170  )
        12           I   tau(  12) = (   0.2482645   0.0753535   0.5232277  )
        13           I   tau(  13) = (  -0.0622732   0.2400267   0.5546166  )
        14           I   tau(  14) = (   0.0054035  -0.0209696   0.7875134  )
        15           I   tau(  15) = (   0.2492850   0.4424881   0.0200427  )
        16           I   tau(  16) = (   0.0763084   0.7428597  -0.0121398  )
        17           I   tau(  17) = (   0.0025768   0.5201454   0.2644555  )
        18           I   tau(  18) = (   0.2495414   0.4429791   0.5092260  )
        19           I   tau(  19) = (   0.0757231   0.7430804   0.5402876  )
        20           I   tau(  20) = (   0.0243744   0.4860517   0.7862662  )
        21           I   tau(  21) = (   0.7495997  -0.0590912  -0.0127310  )
        22           I   tau(  22) = (   0.5758127   0.2414958   0.0182724  )
        23           I   tau(  23) = (   0.5243169  -0.0160771   0.2645554  )
        24           I   tau(  24) = (   0.7491384  -0.0591758   0.5423010  )
        25           I   tau(  25) = (   0.5764075   0.2408691   0.5098385  )
        26           I   tau(  26) = (   0.5022629   0.0179837   0.7867331  )
        27           I   tau(  27) = (   0.7484193   0.5772348   0.0007844  )
        28           I   tau(  28) = (   0.4375419   0.7426925   0.0325182  )
        29           I   tau(  29) = (   0.5050649   0.4809838   0.2648772  )
        30           I   tau(  30) = (   0.7490093   0.5762425   0.5300314  )
        31           I   tau(  31) = (   0.4390014   0.7422936   0.4937884  )
        32           I   tau(  32) = (   0.4751633   0.5182781   0.7870544  )
        33           C   tau(  33) = (   0.2512050   0.2898485   0.2646656  )
        34           C   tau(  34) = (   0.2847809   0.2807217   0.7876362  )
        35           C   tau(  35) = (   0.2408856   0.7951121   0.2638297  )
        36           C   tau(  36) = (   0.2936312   0.8005410   0.7850318  )
        37           C   tau(  37) = (   0.7937804   0.2982184   0.2626668  )
        38           C   tau(  38) = (   0.7407157   0.2927375   0.7860235  )
        39           C   tau(  39) = (   0.7851086   0.7829455   0.2657458  )
        40           C   tau(  40) = (   0.7518011   0.7920793   0.7867436  )
        41           N   tau(  41) = (   0.1507898   0.2545050   0.2646244  )
        42           N   tau(  42) = (   0.3390611   0.2297629   0.2643815  )
        43           N   tau(  43) = (   0.1951536   0.1992710   0.7881415  )
        44           N   tau(  44) = (   0.2598605   0.6754360   0.2627850  )
        45           N   tau(  45) = (   0.2314829   0.6967446   0.7854208  )
        46           N   tau(  46) = (   0.7316591   0.1944577   0.2633104  )
        47           N   tau(  47) = (   0.7597672   0.1730965   0.7852735  )
        48           N   tau(  48) = (   0.6957422   0.7012621   0.2658719  )
        49           N   tau(  49) = (   0.6512533   0.7569748   0.7865541  )
        50           N   tau(  50) = (   0.8396096   0.7318397   0.7863685  )
        51           H   tau(  51) = (   0.2638593   0.3771478   0.2650521  )
        52           H   tau(  52) = (   0.1295206   0.1742597   0.2643739  )
        53           H   tau(  53) = (   0.0901066   0.3109175   0.2649503  )
        54           H   tau(  54) = (   0.3386421   0.1472826   0.2639841  )
        55           H   tau(  55) = (   0.4124928   0.2677557   0.2642311  )
        56           H   tau(  56) = (   0.1984145   0.1505362   0.7191286  )
        57           H   tau(  57) = (   0.1202219   0.2362407   0.7897506  )
        58           H   tau(  58) = (   0.2003613   0.1500059   0.8565117  )
        59           H   tau(  59) = (   0.2760039   0.3313500   0.7154469  )
        60           H   tau(  60) = (   0.3619955   0.2372107   0.7857388  )
        61           H   tau(  61) = (   0.2787734   0.3299171   0.8612105  )
        62           H   tau(  62) = (   0.3040038   0.6533901   0.1945702  )
        63           H   tau(  63) = (   0.1874408   0.6320920   0.2623629  )
        64           H   tau(  64) = (   0.3036833   0.6522728   0.3306691  )
        65           H   tau(  65) = (   0.1951031   0.8167367   0.1911406  )
        66           H   tau(  66) = (   0.3197415   0.8356381   0.2637826  )
        67           H   tau(  67) = (   0.1955915   0.8158247   0.3371798  )
        68           H   tau(  68) = (   0.1821320   0.6915229   0.7170186  )
        69           H   tau(  69) = (   0.1819230   0.6920173   0.8537520  )
        70           H   tau(  70) = (   0.2837541   0.6308850   0.7857733  )
        71           H   tau(  71) = (   0.3440404   0.8026591   0.7120499  )
        72           H   tau(  72) = (   0.3437546   0.8033192   0.8581310  )
        73           H   tau(  73) = (   0.2358708   0.8677956   0.7846137  )
        74           H   tau(  74) = (   0.6824305   0.1891678   0.1948867  )
        75           H   tau(  75) = (   0.6823767   0.1897973   0.3317626  )
        76           H   tau(  76) = (   0.7840123   0.1285291   0.2637142  )
        77           H   tau(  77) = (   0.8438494   0.3003412   0.1895038  )
        78           H   tau(  78) = (   0.8439391   0.3010607   0.3357077  )
        79           H   tau(  79) = (   0.7360011   0.3655176   0.2622574  )
        80           H   tau(  80) = (   0.8040141   0.1511227   0.7171667  )
        81           H   tau(  81) = (   0.6872413   0.1299199   0.7847851  )
        82           H   tau(  82) = (   0.8034819   0.1497087   0.8531710  )
        83           H   tau(  83) = (   0.6947133   0.3145758   0.7135135  )
        84           H   tau(  84) = (   0.8196095   0.3331035   0.7852748  )
        85           H   tau(  85) = (   0.6957016   0.3134699   0.8595129  )
        86           H   tau(  86) = (   0.6993817   0.6525707   0.1969930  )
        87           H   tau(  87) = (   0.6205777   0.7379236   0.2669681  )
        88           H   tau(  88) = (   0.7010458   0.6517062   0.3339918  )
        89           H   tau(  89) = (   0.7762702   0.8337267   0.1936849  )
        90           H   tau(  90) = (   0.8625149   0.7396430   0.2644672  )
        91           H   tau(  91) = (   0.7784301   0.8321946   0.3391372  )
        92           H   tau(  92) = (   0.7643114   0.8793971   0.7873653  )
        93           H   tau(  93) = (   0.6297041   0.6768968   0.7860855  )
        94           H   tau(  94) = (   0.5904596   0.8132397   0.7872021  )
        95           H   tau(  95) = (   0.8393896   0.6492956   0.7857864  )
        96           H   tau(  96) = (   0.9129462   0.7700309   0.7866729  )

     number of k points=    32
                       cart. coord. in units 2pi/alat
        k(    1) = (   0.1250000   0.1244814   0.1197165), wk =   0.0625000
        k(    2) = (   0.1250000   0.1244814   0.3591496), wk =   0.0625000
        k(    3) = (   0.1250000   0.3734443   0.1197165), wk =   0.0625000
        k(    4) = (   0.1250000   0.3734443   0.3591496), wk =   0.0625000
        k(    5) = (   0.3750000   0.1244814   0.1197165), wk =   0.0625000
        k(    6) = (   0.3750000   0.1244814   0.3591496), wk =   0.0625000
        k(    7) = (   0.3750000   0.3734443   0.1197165), wk =   0.0625000
        k(    8) = (   0.3750000   0.3734443   0.3591496), wk =   0.0625000
        k(    9) = (  -0.1250000  -0.1244814   0.1197165), wk =   0.0625000
        k(   10) = (  -0.1250000   0.1244814  -0.1197165), wk =   0.0625000
        k(   11) = (   0.1250000  -0.1244814  -0.1197165), wk =   0.0625000
        k(   12) = (  -0.1250000  -0.1244814   0.3591496), wk =   0.0625000
        k(   13) = (  -0.1250000   0.1244814  -0.3591496), wk =   0.0625000
        k(   14) = (   0.1250000  -0.1244814  -0.3591496), wk =   0.0625000
        k(   15) = (  -0.1250000  -0.3734443   0.1197165), wk =   0.0625000
        k(   16) = (  -0.1250000   0.3734443  -0.1197165), wk =   0.0625000
        k(   17) = (   0.1250000  -0.3734443  -0.1197165), wk =   0.0625000
        k(   18) = (  -0.1250000  -0.3734443   0.3591496), wk =   0.0625000
        k(   19) = (  -0.1250000   0.3734443  -0.3591496), wk =   0.0625000
        k(   20) = (   0.1250000  -0.3734443  -0.3591496), wk =   0.0625000
        k(   21) = (  -0.3750000  -0.1244814   0.1197165), wk =   0.0625000
        k(   22) = (  -0.3750000   0.1244814  -0.1197165), wk =   0.0625000
        k(   23) = (   0.3750000  -0.1244814  -0.1197165), wk =   0.0625000
        k(   24) = (  -0.3750000  -0.1244814   0.3591496), wk =   0.0625000
        k(   25) = (  -0.3750000   0.1244814  -0.3591496), wk =   0.0625000
        k(   26) = (   0.3750000  -0.1244814  -0.3591496), wk =   0.0625000
        k(   27) = (  -0.3750000  -0.3734443   0.1197165), wk =   0.0625000
        k(   28) = (  -0.3750000   0.3734443  -0.1197165), wk =   0.0625000
        k(   29) = (   0.3750000  -0.3734443  -0.1197165), wk =   0.0625000
        k(   30) = (  -0.3750000  -0.3734443   0.3591496), wk =   0.0625000
        k(   31) = (  -0.3750000   0.3734443  -0.3591496), wk =   0.0625000
        k(   32) = (   0.3750000  -0.3734443  -0.3591496), wk =   0.0625000

     Dense  grid:  2362429 G-vectors     FFT dimensions: ( 180, 180, 180)

     Estimated max dynamical RAM per process >       1.67 GB

     Estimated total dynamical RAM >      53.54 GB

     Initial potential from superposition of free atoms

     starting charge  407.97850, renormalised to  408.00000
     Starting wfcs are  286 randomized atomic wfcs
     Checking if some PAW data can be deallocated... 

     total cpu time spent up to now is     1072.9 secs

     Self-consistent Calculation

     iteration #  1     ecut=   120.00 Ry     beta= 0.70
     Davidson diagonalization with overlap
     ethr =  1.00E-02,  avg # of iterations =  2.0

     total cpu time spent up to now is     3177.3 secs

     total energy              =  -16543.26763323 Ry
     Harris-Foulkes estimate   =  -16546.92910374 Ry
     estimated scf accuracy    <       6.01788649 Ry

     iteration #  2     ecut=   120.00 Ry     beta= 0.70
     Davidson diagonalization with overlap
     ethr =  1.47E-03,  avg # of iterations =  3.0

     total cpu time spent up to now is     6079.1 secs

     total energy              =  -16544.57190048 Ry
     Harris-Foulkes estimate   =  -16546.07296787 Ry
     estimated scf accuracy    <       2.70296726 Ry

     iteration #  3     ecut=   120.00 Ry     beta= 0.70
     Davidson diagonalization with overlap
     ethr =  6.62E-04,  avg # of iterations =  4.0

     total cpu time spent up to now is     8517.5 secs

     total energy              =  -16545.20392432 Ry
     Harris-Foulkes estimate   =  -16545.25679556 Ry
     estimated scf accuracy    <       0.11991160 Ry

     iteration #  4     ecut=   120.00 Ry     beta= 0.70
     Davidson diagonalization with overlap
     ethr =  2.94E-05,  avg # of iterations =  4.0

     total cpu time spent up to now is    11610.2 secs

     total energy              =  -16545.23486210 Ry
     Harris-Foulkes estimate   =  -16545.25081606 Ry
     estimated scf accuracy    <       0.03030673 Ry

     iteration #  5     ecut=   120.00 Ry     beta= 0.70
     Davidson diagonalization with overlap
     ethr =  7.43E-06,  avg # of iterations =  4.0

     total cpu time spent up to now is    14622.6 secs

     total energy              =  -16545.24112289 Ry
     Harris-Foulkes estimate   =  -16545.24245935 Ry
     estimated scf accuracy    <       0.00257309 Ry

     iteration #  6     ecut=   120.00 Ry     beta= 0.70
     Davidson diagonalization with overlap
     ethr =  6.31E-07,  avg # of iterations =  4.0

     total cpu time spent up to now is    18190.2 secs

     total energy              =  -16545.24185449 Ry
     Harris-Foulkes estimate   =  -16545.24210702 Ry
     estimated scf accuracy    <       0.00056800 Ry

     iteration #  7     ecut=   120.00 Ry     beta= 0.70
     Davidson diagonalization with overlap
     ethr =  1.39E-07,  avg # of iterations =  3.0

     total cpu time spent up to now is    21347.0 secs

     total energy              =  -16545.24197713 Ry
     Harris-Foulkes estimate   =  -16545.24199458 Ry
     estimated scf accuracy    <       0.00004174 Ry

     iteration #  8     ecut=   120.00 Ry     beta= 0.70
     Davidson diagonalization with overlap
     ethr =  1.02E-08,  avg # of iterations =  4.0

     total cpu time spent up to now is    24895.0 secs

     total energy              =  -16545.24198946 Ry
     Harris-Foulkes estimate   =  -16545.24199698 Ry
     estimated scf accuracy    <       0.00001687 Ry

     iteration #  9     ecut=   120.00 Ry     beta= 0.70
     Davidson diagonalization with overlap
     ethr =  4.13E-09,  avg # of iterations =  3.0

     total cpu time spent up to now is    27900.2 secs

     total energy              =  -16545.24199298 Ry
     Harris-Foulkes estimate   =  -16545.24199348 Ry
     estimated scf accuracy    <       0.00000104 Ry

     iteration # 10     ecut=   120.00 Ry     beta= 0.70
     Davidson diagonalization with overlap
     ethr =  2.56E-10,  avg # of iterations =  3.1

     total cpu time spent up to now is    31196.7 secs

     total energy              =  -16545.24199326 Ry
     Harris-Foulkes estimate   =  -16545.24199338 Ry
     estimated scf accuracy    <       0.00000026 Ry

     iteration # 11     ecut=   120.00 Ry     beta= 0.70
     Davidson diagonalization with overlap
     ethr =  6.42E-11,  avg # of iterations =  3.0

     total cpu time spent up to now is    33996.4 secs

     End of self-consistent calculation

          k = 0.1250 0.1245 0.1197 (295316 PWs)   bands (ev):

   -17.6855 -17.6762 -17.3133 -17.3043 -17.3030 -17.3001 -17.2352 -17.2288
   -15.5450 -15.5427 -14.0721 -14.0711 -14.0627 -14.0626 -14.0579 -14.0561
   -14.0517 -14.0509 -14.0481 -14.0475 -14.0462 -14.0430 -14.0340 -14.0319
   -14.0316 -14.0305 -14.0300 -14.0298 -14.0291 -14.0276 -14.0275 -14.0258
   -14.0242 -14.0228 -14.0156 -14.0147 -14.0138 -14.0129 -14.0124 -14.0123
   -14.0120 -14.0109 -14.0106 -14.0102 -14.0087 -14.0072 -13.9945 -13.9935
   -13.9928 -13.9916 -10.2662 -10.2631 -10.2542 -10.2525 -10.2374 -10.2298
    -9.5495  -9.5424  -9.4488  -9.3365  -9.3016  -9.2634  -9.2131  -9.1595
    -9.1464  -9.1322  -9.0926  -9.0586  -9.0299  -8.9711  -8.9646  -8.9503
    -8.9483  -8.9286  -8.9258  -8.9130  -8.8792  -8.8311  -8.8016  -8.7684
    -8.7593  -8.7327  -7.5316  -7.5219  -6.9526  -6.9507  -6.7640  -6.7535
    -6.7500  -6.7485  -6.7409  -6.7335  -6.7259  -6.7245  -6.7171  -6.7109
    -6.6623  -6.6424  -5.6513  -5.2458  -5.2340  -5.2075  -5.2038  -5.1963
    -4.8383  -4.8173  -4.8005  -4.6118  -4.6020  -4.5937  -4.5845  -4.5763
    -4.5710  -4.3938  -3.6497  -3.6490  -3.1144  -3.1083  -2.6315  -2.6111
    -2.6018  -2.5922  -2.5781  -2.5719  -2.5588  -2.5549  -2.5351  -2.5218
    -2.5181  -2.5119  -0.6824  -0.6428  -0.5969  -0.5909  -0.5670  -0.4987
    -0.4823  -0.4290  -0.3941  -0.3474  -0.3272  -0.2577   0.0685   0.1799
     0.4172   0.4675   0.4960   0.5022   0.5598   0.5706   0.5830   0.6602
     0.7044   0.7155   0.7507   0.7807   0.8239   0.9161   0.9168   0.9351
     0.9669   1.0145   1.0491   1.0803   1.0952   1.1293   1.1421   1.1625
     1.1794   1.1966   1.2053   1.2308   1.2332   1.2532   1.2665   1.2901
     1.3232   1.3382   1.3463   1.4105   1.4121   1.4771   1.5026   1.5039
     1.5108   1.5192   1.5766   1.5918   1.5957   1.6145   1.6441   1.6657
     1.6941   1.7212   1.7552   1.8149   1.8316   1.8621   1.8818   1.9126
     1.9269   1.9914   2.0956   2.2561

          k = 0.1250 0.1245 0.3591 (295295 PWs)   bands (ev):

   -17.6855 -17.6762 -17.3133 -17.3043 -17.3030 -17.3001 -17.2352 -17.2288
   -15.5450 -15.5427 -14.0702 -14.0689 -14.0649 -14.0645 -14.0560 -14.0537
   -14.0527 -14.0511 -14.0499 -14.0481 -14.0464 -14.0435 -14.0340 -14.0319
   -14.0316 -14.0305 -14.0300 -14.0298 -14.0291 -14.0276 -14.0275 -14.0258
   -14.0242 -14.0229 -14.0156 -14.0147 -14.0138 -14.0129 -14.0124 -14.0123
   -14.0120 -14.0109 -14.0106 -14.0102 -14.0087 -14.0072 -13.9945 -13.9935
   -13.9928 -13.9916 -10.2653 -10.2639 -10.2541 -10.2524 -10.2375 -10.2299
    -9.5426  -9.5393  -9.4268  -9.3737  -9.2991  -9.2438  -9.2393  -9.2101
    -9.1734  -9.1613  -9.0211  -9.0114  -8.9933  -8.9836  -8.9623  -8.9525
    -8.9508  -8.9384  -8.9054  -8.9022  -8.8580  -8.8390  -8.8311  -8.7982
    -8.7516  -8.7408  -7.5316  -7.5224  -6.9527  -6.9508  -6.7638  -6.7519
    -6.7486  -6.7454  -6.7373  -6.7344  -6.7253  -6.7242  -6.7184  -6.7120
    -6.6659  -6.6452  -5.5388  -5.3674  -5.2084  -5.2045  -5.1338  -5.0952
    -4.9688  -4.9313  -4.7265  -4.6278  -4.6063  -4.5991  -4.5793  -4.5741
    -4.5680  -4.5037  -3.6501  -3.6494  -3.1142  -3.1085  -2.6222  -2.6098
    -2.6017  -2.5931  -2.5799  -2.5780  -2.5545  -2.5531  -2.5353  -2.5218
    -2.5186  -2.5125  -0.5716  -0.5482  -0.5407  -0.4942  -0.4056  -0.3622
    -0.3590  -0.3468  -0.2346  -0.2119  -0.1893  -0.0959   0.0781   0.1512
     0.3082   0.3434   0.4176   0.4488   0.4851   0.5163   0.5428   0.5844
     0.5903   0.6038   0.6332   0.6526   0.6872   0.7188   0.8367   0.8819
     0.8841   0.9309   0.9779   1.0112   1.0681   1.0747   1.1138   1.1192
     1.1551   1.1627   1.1815   1.1994   1.2806   1.2902   1.3222   1.3344
     1.3535   1.3713   1.3972   1.3986   1.4561   1.4705   1.4924   1.5139
     1.5468   1.5556   1.5649   1.5670   1.6083   1.6166   1.6479   1.6608
     1.6906   1.7279   1.7496   1.7706   1.7851   1.8371   1.8387   1.8475
     1.8884   1.8968   2.1048   2.1405

          k = 0.1250 0.3734 0.1197 (295322 PWs)   bands (ev):

   -17.6855 -17.6762 -17.3133 -17.3043 -17.3030 -17.3001 -17.2352 -17.2288
   -15.5450 -15.5427 -14.0719 -14.0709 -14.0625 -14.0624 -14.0572 -14.0564
   -14.0509 -14.0500 -14.0480 -14.0472 -14.0463 -14.0442 -14.0340 -14.0321
   -14.0313 -14.0306 -14.0304 -14.0299 -14.0290 -14.0281 -14.0278 -14.0260
   -14.0243 -14.0230 -14.0156 -14.0148 -14.0138 -14.0130 -14.0124 -14.0123
   -14.0120 -14.0109 -14.0106 -14.0102 -14.0087 -14.0072 -13.9945 -13.9935
   -13.9929 -13.9916 -10.2625 -10.2610 -10.2564 -10.2538 -10.2387 -10.2310
    -9.5501  -9.5456  -9.4058  -9.3449  -9.3111  -9.2466  -9.2418  -9.1825
    -9.1592  -9.1485  -9.0934  -9.0914  -9.0152  -8.9928  -8.9419  -8.9360
    -8.9308  -8.9201  -8.9119  -8.8936  -8.8500  -8.8274  -8.8248  -8.7835
    -8.7559  -8.7431  -7.5311  -7.5219  -6.9526  -6.9507  -6.7628  -6.7532
    -6.7497  -6.7483  -6.7393  -6.7360  -6.7259  -6.7244  -6.7182  -6.7119
    -6.6625  -6.6427  -5.5387  -5.3695  -5.2094  -5.2054  -5.1256  -5.1001
    -4.9638  -4.9414  -4.7174  -4.6306  -4.6028  -4.5947  -4.5838  -4.5783
    -4.5621  -4.4933  -3.6506  -3.6497  -3.1142  -3.1085  -2.6256  -2.6136
    -2.5938  -2.5866  -2.5779  -2.5712  -2.5625  -2.5580  -2.5374  -2.5229
    -2.5196  -2.5143  -0.6556  -0.6195  -0.5911  -0.5517  -0.5154  -0.4786
    -0.4531  -0.3773  -0.2532  -0.0839  -0.0484   0.0363   0.1531   0.1537
     0.1941   0.3869   0.4140   0.4810   0.5142   0.5302   0.5831   0.5882
     0.6182   0.6391   0.6748   0.7342   0.7688   0.8284   0.8603   0.9085
     0.9212   0.9534   1.0444   1.0461   1.0866   1.0889   1.1194   1.1229
     1.1561   1.1599   1.1969   1.2143   1.2319   1.2339   1.2651   1.2780
     1.3215   1.3248   1.3294   1.3624   1.4044   1.4083   1.4812   1.4959
     1.5063   1.5435   1.5582   1.5722   1.6038   1.6675   1.6758   1.6821
     1.6849   1.7242   1.7287   1.7862   1.8219   1.8708   1.8876   1.9098
     1.9501   1.9564   2.0304   2.1065

          k = 0.1250 0.3734 0.3591 (295322 PWs)   bands (ev):

   -17.6855 -17.6762 -17.3133 -17.3043 -17.3030 -17.3001 -17.2352 -17.2288
   -15.5450 -15.5427 -14.0701 -14.0687 -14.0647 -14.0643 -14.0552 -14.0542
   -14.0519 -14.0508 -14.0495 -14.0474 -14.0467 -14.0446 -14.0340 -14.0321
   -14.0313 -14.0305 -14.0305 -14.0299 -14.0290 -14.0281 -14.0278 -14.0259
   -14.0243 -14.0230 -14.0156 -14.0147 -14.0138 -14.0130 -14.0124 -14.0123
   -14.0120 -14.0109 -14.0106 -14.0102 -14.0087 -14.0072 -13.9945 -13.9935
   -13.9929 -13.9916 -10.2621 -10.2613 -10.2563 -10.2538 -10.2387 -10.2310
    -9.5452  -9.5421  -9.3871  -9.3524  -9.2886  -9.2731  -9.2517  -9.2303
    -9.2132  -9.1834  -9.0189  -9.0175  -8.9824  -8.9790  -8.9486  -8.9453
    -8.9349  -8.9296  -8.8990  -8.8963  -8.8656  -8.8514  -8.8075  -8.7835
    -8.7668  -8.7550  -7.5313  -7.5222  -6.9526  -6.9507  -6.7630  -6.7514
    -6.7482  -6.7456  -6.7367  -6.7350  -6.7251  -6.7241  -6.7200  -6.7131
    -6.6660  -6.6454  -5.4290  -5.2729  -5.2529  -5.2077  -5.2005  -5.0932
    -4.9986  -4.8543  -4.8301  -4.7041  -4.5996  -4.5959  -4.5803  -4.5766
    -4.5719  -4.5538  -3.6508  -3.6501  -3.1142  -3.1086  -2.6201  -2.6087
    -2.5951  -2.5887  -2.5797  -2.5775  -2.5589  -2.5558  -2.5367  -2.5222
    -2.5193  -2.5133  -0.5281  -0.4956  -0.4533  -0.4170  -0.3317  -0.2742
    -0.2509  -0.1690  -0.1471  -0.0896  -0.0367   0.0134   0.1360   0.1367
     0.2304   0.2461   0.3494   0.3590   0.4292   0.4651   0.4806   0.5260
     0.5686   0.5803   0.6109   0.6223   0.7426   0.7552   0.7913   0.8223
     0.8647   0.8970   0.9261   0.9470   0.9771   0.9816   1.0332   1.0584
     1.1037   1.1054   1.1652   1.1787   1.2001   1.2047   1.2756   1.2825
     1.3493   1.3570   1.3880   1.3958   1.4434   1.4536   1.4934   1.4946
     1.5454   1.5647   1.5805   1.5865   1.5964   1.6379   1.6759   1.6832
     1.7001   1.7255   1.7570   1.7661   1.7835   1.8121   1.8592   1.8783
     1.9069   1.9207   1.9696   1.9893

          k = 0.3750 0.1245 0.1197 (295296 PWs)   bands (ev):

   -17.6855 -17.6762 -17.3133 -17.3042 -17.3031 -17.3001 -17.2352 -17.2288
   -15.5450 -15.5427 -14.0719 -14.0710 -14.0625 -14.0625 -14.0572 -14.0563
   -14.0507 -14.0498 -14.0479 -14.0470 -14.0462 -14.0441 -14.0340 -14.0319
   -14.0317 -14.0307 -14.0304 -14.0298 -14.0293 -14.0281 -14.0279 -14.0260
   -14.0244 -14.0230 -14.0156 -14.0148 -14.0138 -14.0130 -14.0124 -14.0122
   -14.0121 -14.0109 -14.0106 -14.0102 -14.0087 -14.0073 -13.9945 -13.9935
   -13.9929 -13.9916 -10.2625 -10.2605 -10.2580 -10.2550 -10.2377 -10.2301
    -9.5405  -9.5366  -9.4290  -9.3900  -9.2773  -9.2384  -9.2342  -9.1856
    -9.1406  -9.1374  -9.0942  -9.0908  -9.0323  -9.0017  -8.9594  -8.9453
    -8.9200  -8.9181  -8.9086  -8.9012  -8.8308  -8.8164  -8.8052  -8.7851
    -8.7724  -8.7571  -7.5316  -7.5224  -6.9529  -6.9510  -6.7646  -6.7550
    -6.7491  -6.7487  -6.7379  -6.7347  -6.7259  -6.7247  -6.7159  -6.7101
    -6.6626  -6.6427  -5.5312  -5.3500  -5.2094  -5.2055  -5.1260  -5.1149
    -4.9544  -4.9391  -4.7409  -4.6360  -4.6041  -4.5974  -4.5781  -4.5732
    -4.5697  -4.5030  -3.6505  -3.6496  -3.1143  -3.1085  -2.6273  -2.6154
    -2.5953  -2.5885  -2.5808  -2.5745  -2.5674  -2.5629  -2.5290  -2.5202
    -2.5140  -2.5113  -0.6664  -0.6503  -0.5621  -0.5400  -0.5149  -0.4650
    -0.3592  -0.3103  -0.2277  -0.1829  -0.0812  -0.0118   0.1085   0.1965
     0.2510   0.3999   0.4475   0.4639   0.4827   0.5491   0.5524   0.6004
     0.6314   0.6654   0.7021   0.7547   0.7849   0.8110   0.8600   0.8852
     0.9146   0.9947   1.0162   1.0320   1.0790   1.1095   1.1363   1.1395
     1.1789   1.1882   1.2142   1.2213   1.2323   1.2523   1.2552   1.2876
     1.3162   1.3355   1.3498   1.3645   1.3812   1.3846   1.4182   1.4287
     1.4794   1.4814   1.5491   1.5671   1.6008   1.6048   1.6694   1.6917
     1.7244   1.7268   1.7485   1.8006   1.8310   1.8626   1.8640   1.8918
     1.9257   1.9416   1.9984   2.0742

          k = 0.3750 0.1245 0.3591 (295281 PWs)   bands (ev):

   -17.6855 -17.6762 -17.3133 -17.3042 -17.3031 -17.3001 -17.2352 -17.2288
   -15.5450 -15.5427 -14.0701 -14.0687 -14.0648 -14.0643 -14.0551 -14.0540
   -14.0517 -14.0506 -14.0496 -14.0472 -14.0466 -14.0444 -14.0340 -14.0319
   -14.0317 -14.0307 -14.0304 -14.0298 -14.0293 -14.0281 -14.0279 -14.0260
   -14.0244 -14.0230 -14.0156 -14.0147 -14.0139 -14.0130 -14.0124 -14.0122
   -14.0121 -14.0109 -14.0106 -14.0102 -14.0087 -14.0073 -13.9945 -13.9935
   -13.9929 -13.9916 -10.2618 -10.2608 -10.2579 -10.2551 -10.2377 -10.2302
    -9.5379  -9.5348  -9.3998  -9.3629  -9.3281  -9.2849  -9.2393  -9.2180
    -9.1747  -9.1620  -9.0214  -9.0160  -8.9968  -8.9792  -8.9683  -8.9560
    -8.9422  -8.9333  -8.8853  -8.8831  -8.8490  -8.8341  -8.8101  -8.7918
    -8.7745  -8.7648  -7.5319  -7.5227  -6.9530  -6.9510  -6.7644  -6.7539
    -6.7473  -6.7457  -6.7358  -6.7336  -6.7256  -6.7248  -6.7168  -6.7109
    -6.6660  -6.6454  -5.4218  -5.2679  -5.2267  -5.2080  -5.2034  -5.0716
    -5.0223  -4.8669  -4.8534  -4.7141  -4.5994  -4.5944  -4.5813  -4.5751
    -4.5723  -4.5580  -3.6507  -3.6500  -3.1142  -3.1086  -2.6220  -2.6114
    -2.5970  -2.5896  -2.5817  -2.5794  -2.5641  -2.5596  -2.5291  -2.5207
    -2.5144  -2.5110  -0.5145  -0.4829  -0.4082  -0.3984  -0.2894  -0.2663
    -0.2331  -0.2029  -0.1531  -0.1239  -0.0357  -0.0034   0.0944   0.1161
     0.2783   0.2890   0.3579   0.3684   0.4177   0.4403   0.4964   0.5146
     0.5287   0.5704   0.6242   0.6476   0.7582   0.7671   0.8236   0.8481
     0.8864   0.8922   0.9683   0.9703   1.0097   1.0152   1.0326   1.0484
     1.1064   1.1194   1.1473   1.1488   1.1953   1.2137   1.2507   1.2697
     1.3440   1.3501   1.3739   1.3792   1.4031   1.4139   1.4507   1.4601
     1.5359   1.5575   1.5605   1.5876   1.6153   1.6261   1.6513   1.6708
     1.7076   1.7235   1.7301   1.7628   1.8173   1.8304   1.8509   1.8683
     1.8816   1.8946   1.9540   1.9779

          k = 0.3750 0.3734 0.1197 (295366 PWs)   bands (ev):

   -17.6855 -17.6762 -17.3133 -17.3042 -17.3031 -17.3001 -17.2352 -17.2288
   -15.5450 -15.5427 -14.0718 -14.0708 -14.0623 -14.0622 -14.0568 -14.0563
   -14.0500 -14.0488 -14.0478 -14.0473 -14.0462 -14.0447 -14.0339 -14.0322
   -14.0318 -14.0310 -14.0307 -14.0300 -14.0295 -14.0284 -14.0281 -14.0261
   -14.0245 -14.0231 -14.0156 -14.0148 -14.0138 -14.0130 -14.0124 -14.0122
   -14.0121 -14.0109 -14.0106 -14.0103 -14.0087 -14.0073 -13.9945 -13.9935
   -13.9929 -13.9916 -10.2620 -10.2614 -10.2561 -10.2535 -10.2395 -10.2313
    -9.5440  -9.5387  -9.3854  -9.3660  -9.3280  -9.2669  -9.2120  -9.1772
    -9.1685  -9.1414  -9.0928  -9.0909  -9.0707  -9.0461  -8.9187  -8.9121
    -8.9113  -8.9066  -8.8909  -8.8750  -8.8364  -8.8268  -8.8099  -8.8012
    -8.7656  -8.7645  -7.5312  -7.5221  -6.9529  -6.9509  -6.7639  -6.7549
    -6.7492  -6.7482  -6.7374  -6.7357  -6.7265  -6.7242  -6.7170  -6.7103
    -6.6628  -6.6429  -5.4225  -5.2749  -5.2231  -5.2094  -5.2055  -5.0790
    -5.0172  -4.8672  -4.8362  -4.7148  -4.5998  -4.5971  -4.5833  -4.5746
    -4.5685  -4.5479  -3.6513  -3.6499  -3.1143  -3.1086  -2.6251  -2.6148
    -2.5922  -2.5859  -2.5798  -2.5737  -2.5668  -2.5617  -2.5312  -2.5223
    -2.5153  -2.5128  -0.6342  -0.6187  -0.5936  -0.5474  -0.3021  -0.2101
    -0.1831  -0.1579  -0.1137  -0.0838  -0.0043   0.0234   0.1717   0.1892
     0.2446   0.2561   0.4122   0.4329   0.4831   0.4845   0.5255   0.5484
     0.5596   0.5913   0.6399   0.6662   0.6840   0.7235   0.7608   0.8090
     0.8995   0.9926   1.0234   1.0561   1.0626   1.0868   1.1180   1.1337
     1.1626   1.1715   1.1950   1.2065   1.2140   1.2247   1.2344   1.2748
     1.2823   1.3000   1.3458   1.3518   1.3681   1.3896   1.4040   1.4352
     1.4491   1.4604   1.5194   1.5215   1.5400   1.5726   1.6375   1.6466
     1.6855   1.6916   1.7492   1.7709   1.8126   1.8402   1.8792   1.9118
     1.9324   1.9369   2.0218   2.0282

          k = 0.3750 0.3734 0.3591 (295299 PWs)   bands (ev):

   -17.6855 -17.6762 -17.3133 -17.3042 -17.3031 -17.3001 -17.2352 -17.2288
   -15.5450 -15.5427 -14.0699 -14.0685 -14.0646 -14.0641 -14.0546 -14.0539
   -14.0509 -14.0502 -14.0495 -14.0477 -14.0463 -14.0449 -14.0339 -14.0322
   -14.0318 -14.0310 -14.0307 -14.0300 -14.0295 -14.0285 -14.0281 -14.0261
   -14.0245 -14.0231 -14.0156 -14.0148 -14.0139 -14.0130 -14.0124 -14.0122
   -14.0121 -14.0109 -14.0106 -14.0103 -14.0087 -14.0073 -13.9945 -13.9935
   -13.9929 -13.9916 -10.2619 -10.2613 -10.2560 -10.2536 -10.2393 -10.2314
    -9.5408  -9.5373  -9.3595  -9.3350  -9.3187  -9.2729  -9.2715  -9.2511
    -9.2197  -9.1904  -9.0191  -9.0167  -9.0010  -8.9958  -8.9393  -8.9343
    -8.9315  -8.9283  -8.8761  -8.8673  -8.8490  -8.8452  -8.8001  -8.7942
    -8.7778  -8.7748  -7.5315  -7.5224  -6.9529  -6.9510  -6.7637  -6.7535
    -6.7466  -6.7457  -6.7359  -6.7339  -6.7255  -6.7248  -6.7181  -6.7116
    -6.6662  -6.6455  -5.3163  -5.2121  -5.2066  -5.1740  -5.1443  -5.1141
    -5.0059  -4.9760  -4.9566  -4.8258  -4.5975  -4.5953  -4.5834  -4.5762
    -4.5724  -4.5679  -3.6513  -3.6504  -3.1143  -3.1086  -2.6210  -2.6102
    -2.5942  -2.5882  -2.5805  -2.5784  -2.5639  -2.5595  -2.5307  -2.5209
    -2.5154  -2.5117  -0.3215  -0.3045  -0.2889  -0.2608  -0.2084  -0.2003
    -0.1442  -0.1125  -0.0977  -0.0540  -0.0220  -0.0160   0.1285   0.1441
     0.2506   0.2715   0.3204   0.3682   0.3740   0.3832   0.4054   0.4338
     0.4820   0.5101   0.5504   0.5709   0.7668   0.7845   0.8106   0.8488
     0.8758   0.8808   0.9316   0.9330   0.9678   0.9710   1.0029   1.0104
     1.0575   1.0812   1.1045   1.1331   1.1876   1.1998   1.2239   1.2266
     1.2600   1.2861   1.3230   1.3424   1.4117   1.4146   1.4420   1.4597
     1.4697   1.4728   1.5363   1.5575   1.5733   1.5812   1.6230   1.6275
     1.6929   1.6967   1.7351   1.7400   1.8046   1.8105   1.8739   1.8827
     1.9246   1.9340   1.9578   1.9598

          k =-0.1250-0.1245 0.1197 (295316 PWs)   bands (ev):

   -17.6855 -17.6762 -17.3133 -17.3043 -17.3030 -17.3001 -17.2352 -17.2288
   -15.5450 -15.5427 -14.0721 -14.0711 -14.0627 -14.0626 -14.0579 -14.0561
   -14.0517 -14.0509 -14.0481 -14.0475 -14.0462 -14.0430 -14.0340 -14.0319
   -14.0316 -14.0305 -14.0300 -14.0298 -14.0291 -14.0276 -14.0275 -14.0258
   -14.0242 -14.0228 -14.0156 -14.0147 -14.0138 -14.0129 -14.0124 -14.0123
   -14.0120 -14.0109 -14.0106 -14.0102 -14.0087 -14.0072 -13.9945 -13.9935
   -13.9928 -13.9916 -10.2662 -10.2631 -10.2542 -10.2525 -10.2374 -10.2298
    -9.5494  -9.5424  -9.4488  -9.3364  -9.3029  -9.2616  -9.2131  -9.1599
    -9.1475  -9.1317  -9.0923  -9.0588  -9.0295  -8.9708  -8.9643  -8.9509
    -8.9486  -8.9291  -8.9254  -8.9131  -8.8787  -8.8313  -8.8015  -8.7684
    -8.7594  -8.7326  -7.5316  -7.5219  -6.9526  -6.9507  -6.7640  -6.7531
    -6.7501  -6.7487  -6.7412  -6.7332  -6.7261  -6.7247  -6.7169  -6.7110
    -6.6623  -6.6424  -5.6514  -5.2459  -5.2338  -5.2074  -5.2037  -5.1967
    -4.8383  -4.8167  -4.8010  -4.6118  -4.6020  -4.5936  -4.5847  -4.5763
    -4.5710  -4.3937  -3.6497  -3.6490  -3.1144  -3.1083  -2.6317  -2.6107
    -2.6014  -2.5928  -2.5776  -2.5723  -2.5594  -2.5543  -2.5354  -2.5214
    -2.5183  -2.5119  -0.6828  -0.6427  -0.5973  -0.5907  -0.5650  -0.4989
    -0.4838  -0.4284  -0.3942  -0.3477  -0.3273  -0.2579   0.0688   0.1795
     0.4176   0.4679   0.4951   0.5020   0.5600   0.5707   0.5835   0.6601
     0.7047   0.7115   0.7553   0.7784   0.8269   0.9151   0.9176   0.9340
     0.9702   1.0129   1.0500   1.0801   1.0952   1.1262   1.1398   1.1612
     1.1789   1.1936   1.2071   1.2275   1.2332   1.2579   1.2656   1.2883
     1.3265   1.3384   1.3496   1.4103   1.4152   1.4777   1.5019   1.5025
     1.5099   1.5203   1.5777   1.5934   1.5979   1.6127   1.6393   1.6652
     1.6928   1.7249   1.7551   1.8137   1.8326   1.8623   1.8835   1.9122
     1.9246   1.9914   2.0950   2.2561

          k =-0.1250 0.1245-0.1197 (295316 PWs)   bands (ev):

   -17.6855 -17.6762 -17.3133 -17.3043 -17.3030 -17.3001 -17.2352 -17.2288
   -15.5450 -15.5427 -14.0721 -14.0711 -14.0627 -14.0626 -14.0579 -14.0561
   -14.0517 -14.0509 -14.0481 -14.0475 -14.0462 -14.0430 -14.0340 -14.0319
   -14.0316 -14.0305 -14.0299 -14.0297 -14.0291 -14.0276 -14.0275 -14.0258
   -14.0242 -14.0228 -14.0156 -14.0147 -14.0138 -14.0129 -14.0124 -14.0123
   -14.0120 -14.0109 -14.0106 -14.0102 -14.0087 -14.0072 -13.9945 -13.9935
   -13.9928 -13.9916 -10.2672 -10.2640 -10.2532 -10.2517 -10.2376 -10.2297
    -9.5491  -9.5427  -9.4509  -9.3339  -9.3004  -9.2582  -9.2212  -9.1593
    -9.1498  -9.1259  -9.0945  -9.0567  -9.0355  -8.9719  -8.9610  -8.9517
    -8.9397  -8.9277  -8.9237  -8.9180  -8.8844  -8.8326  -8.8013  -8.7687
    -8.7580  -8.7314  -7.5317  -7.5217  -6.9527  -6.9508  -6.7638  -6.7536
    -6.7498  -6.7487  -6.7409  -6.7330  -6.7258  -6.7247  -6.7171  -6.7114
    -6.6623  -6.6425  -5.6515  -5.2444  -5.2344  -5.2079  -5.2051  -5.1957
    -4.8386  -4.8169  -4.8024  -4.6128  -4.6004  -4.5951  -4.5835  -4.5760
    -4.5685  -4.3951  -3.6497  -3.6487  -3.1144  -3.1082  -2.6319  -2.6105
    -2.6009  -2.5918  -2.5783  -2.5723  -2.5602  -2.5554  -2.5346  -2.5218
    -2.5181  -2.5113  -0.6836  -0.6462  -0.6153  -0.5896  -0.5512  -0.4900
    -0.4849  -0.4245  -0.3937  -0.3506  -0.3226  -0.2646   0.0728   0.1783
     0.4269   0.4631   0.5011   0.5179   0.5429   0.5703   0.5756   0.6637
     0.6950   0.7059   0.7588   0.7727   0.8218   0.9019   0.9091   0.9627
     0.9695   1.0058   1.0492   1.0843   1.0884   1.1238   1.1329   1.1546
     1.1714   1.1935   1.2046   1.2333   1.2357   1.2647   1.2973   1.2993
     1.3183   1.3401   1.3591   1.4092   1.4138   1.4691   1.4977   1.5013
     1.5108   1.5295   1.5812   1.5816   1.5995   1.6294   1.6339   1.6591
     1.6941   1.7326   1.7349   1.8089   1.8465   1.8654   1.8825   1.9106
     1.9242   1.9880   2.0973   2.2537

          k = 0.1250-0.1245-0.1197 (295316 PWs)   bands (ev):

   -17.6855 -17.6762 -17.3133 -17.3043 -17.3030 -17.3001 -17.2352 -17.2288
   -15.5450 -15.5427 -14.0721 -14.0711 -14.0627 -14.0626 -14.0579 -14.0561
   -14.0517 -14.0509 -14.0481 -14.0475 -14.0462 -14.0430 -14.0340 -14.0319
   -14.0316 -14.0305 -14.0299 -14.0297 -14.0291 -14.0276 -14.0275 -14.0258
   -14.0242 -14.0228 -14.0156 -14.0147 -14.0138 -14.0129 -14.0124 -14.0123
   -14.0120 -14.0109 -14.0106 -14.0102 -14.0087 -14.0072 -13.9945 -13.9935
   -13.9928 -13.9916 -10.2672 -10.2640 -10.2532 -10.2517 -10.2376 -10.2297
    -9.5490  -9.5428  -9.4511  -9.3339  -9.2995  -9.2591  -9.2210  -9.1590
    -9.1503  -9.1262  -9.0944  -9.0565  -9.0354  -8.9714  -8.9612  -8.9512
    -8.9413  -8.9272  -8.9233  -8.9185  -8.8843  -8.8324  -8.8014  -8.7683
    -8.7583  -8.7314  -7.5317  -7.5217  -6.9527  -6.9508  -6.7638  -6.7535
    -6.7500  -6.7487  -6.7410  -6.7330  -6.7257  -6.7247  -6.7172  -6.7113
    -6.6623  -6.6425  -5.6515  -5.2459  -5.2327  -5.2079  -5.2049  -5.1960
    -4.8389  -4.8169  -4.8020  -4.6128  -4.6005  -4.5951  -4.5835  -4.5760
    -4.5685  -4.3952  -3.6497  -3.6487  -3.1144  -3.1083  -2.6319  -2.6104
    -2.6006  -2.5922  -2.5779  -2.5725  -2.5609  -2.5551  -2.5343  -2.5216
    -2.5180  -2.5116  -0.6834  -0.6460  -0.6158  -0.5895  -0.5500  -0.4892
    -0.4856  -0.4262  -0.3938  -0.3509  -0.3224  -0.2646   0.0724   0.1786
     0.4267   0.4634   0.5012   0.5180   0.5427   0.5703   0.5757   0.6635
     0.6963   0.7062   0.7596   0.7737   0.8190   0.9000   0.9097   0.9634
     0.9689   1.0061   1.0481   1.0841   1.0912   1.1221   1.1362   1.1536
     1.1743   1.1963   1.2044   1.2316   1.2372   1.2626   1.2979   1.3007
     1.3147   1.3402   1.3563   1.4093   1.4106   1.4703   1.4979   1.5013
     1.5111   1.5301   1.5783   1.5817   1.6026   1.6289   1.6320   1.6581
     1.6998   1.7279   1.7369   1.8100   1.8450   1.8653   1.8801   1.9108
     1.9278   1.9876   2.0971   2.2543

          k =-0.1250-0.1245 0.3591 (295295 PWs)   bands (ev):

   -17.6855 -17.6762 -17.3133 -17.3043 -17.3030 -17.3001 -17.2352 -17.2288
   -15.5450 -15.5427 -14.0702 -14.0689 -14.0649 -14.0645 -14.0560 -14.0537
   -14.0527 -14.0511 -14.0499 -14.0481 -14.0464 -14.0435 -14.0340 -14.0319
   -14.0316 -14.0305 -14.0300 -14.0298 -14.0291 -14.0276 -14.0275 -14.0258
   -14.0242 -14.0229 -14.0156 -14.0147 -14.0138 -14.0129 -14.0124 -14.0123
   -14.0120 -14.0109 -14.0106 -14.0102 -14.0087 -14.0072 -13.9945 -13.9935
   -13.9928 -13.9916 -10.2653 -10.2639 -10.2541 -10.2524 -10.2375 -10.2299
    -9.5425  -9.5393  -9.4269  -9.3739  -9.2991  -9.2430  -9.2395  -9.2100
    -9.1732  -9.1620  -9.0223  -9.0112  -8.9918  -8.9827  -8.9603  -8.9552
    -8.9525  -8.9378  -8.9046  -8.9026  -8.8574  -8.8398  -8.8310  -8.7981
    -8.7518  -8.7406  -7.5316  -7.5224  -6.9527  -6.9508  -6.7638  -6.7517
    -6.7486  -6.7456  -6.7381  -6.7335  -6.7256  -6.7244  -6.7182  -6.7121
    -6.6659  -6.6452  -5.5389  -5.3673  -5.2084  -5.2045  -5.1339  -5.0952
    -4.9688  -4.9313  -4.7264  -4.6280  -4.6064  -4.5989  -4.5794  -4.5741
    -4.5683  -4.5034  -3.6501  -3.6494  -3.1142  -3.1085  -2.6226  -2.6091
    -2.6008  -2.5942  -2.5801  -2.5777  -2.5554  -2.5522  -2.5356  -2.5214
    -2.5187  -2.5125  -0.5718  -0.5477  -0.5406  -0.4951  -0.4040  -0.3648
    -0.3581  -0.3455  -0.2349  -0.2118  -0.1898  -0.0962   0.0791   0.1500
     0.3082   0.3446   0.4178   0.4478   0.4860   0.5167   0.5401   0.5814
     0.5905   0.6064   0.6314   0.6576   0.6863   0.7193   0.8349   0.8838
     0.8859   0.9266   0.9792   1.0124   1.0662   1.0726   1.1161   1.1225
     1.1529   1.1589   1.1826   1.1999   1.2830   1.2899   1.3172   1.3370
     1.3485   1.3760   1.3987   1.4005   1.4558   1.4726   1.4910   1.5145
     1.5466   1.5570   1.5644   1.5671   1.6075   1.6166   1.6455   1.6604
     1.6919   1.7283   1.7518   1.7702   1.7852   1.8343   1.8369   1.8488
     1.8896   1.8961   2.1043   2.1408

          k =-0.1250 0.1245-0.3591 (295295 PWs)   bands (ev):

   -17.6855 -17.6762 -17.3133 -17.3043 -17.3030 -17.3001 -17.2352 -17.2288
   -15.5450 -15.5427 -14.0702 -14.0689 -14.0649 -14.0645 -14.0560 -14.0537
   -14.0527 -14.0511 -14.0499 -14.0481 -14.0464 -14.0435 -14.0340 -14.0319
   -14.0316 -14.0305 -14.0300 -14.0298 -14.0291 -14.0276 -14.0275 -14.0258
   -14.0242 -14.0229 -14.0156 -14.0147 -14.0138 -14.0129 -14.0124 -14.0123
   -14.0120 -14.0109 -14.0106 -14.0102 -14.0087 -14.0072 -13.9945 -13.9935
   -13.9928 -13.9916 -10.2662 -10.2648 -10.2531 -10.2515 -10.2376 -10.2299
    -9.5423  -9.5391  -9.4288  -9.3753  -9.2967  -9.2388  -9.2375  -9.2122
    -9.1723  -9.1658  -9.0220  -9.0120  -8.9936  -8.9850  -8.9634  -8.9531
    -8.9474  -8.9361  -8.9063  -8.9028  -8.8552  -8.8447  -8.8296  -8.7994
    -8.7504  -8.7395  -7.5316  -7.5223  -6.9528  -6.9509  -6.7638  -6.7520
    -6.7482  -6.7455  -6.7375  -6.7338  -6.7255  -6.7244  -6.7184  -6.7123
    -6.6658  -6.6452  -5.5389  -5.3672  -5.2085  -5.2047  -5.1334  -5.0959
    -4.9687  -4.9323  -4.7257  -4.6252  -4.6077  -4.6004  -4.5793  -4.5741
    -4.5666  -4.5048  -3.6500  -3.6492  -3.1142  -3.1085  -2.6224  -2.6093
    -2.6009  -2.5929  -2.5798  -2.5782  -2.5561  -2.5536  -2.5346  -2.5219
    -2.5182  -2.5123  -0.5838  -0.5485  -0.5368  -0.4895  -0.4026  -0.3693
    -0.3581  -0.3366  -0.2404  -0.2044  -0.1890  -0.1005   0.0834   0.1490
     0.3060   0.3425   0.4193   0.4566   0.4946   0.5111   0.5423   0.5730
     0.5960   0.5984   0.6293   0.6592   0.6667   0.7354   0.8395   0.8746
     0.8829   0.9195   0.9695   1.0087   1.0589   1.0816   1.1078   1.1125
     1.1504   1.1677   1.1849   1.1991   1.2956   1.3104   1.3284   1.3499
     1.3600   1.3629   1.3825   1.4134   1.4524   1.4629   1.4821   1.5253
     1.5431   1.5519   1.5701   1.5716   1.6159   1.6192   1.6459   1.6548
     1.7079   1.7170   1.7341   1.7699   1.7915   1.8356   1.8433   1.8473
     1.8862   1.8928   2.1046   2.1377

          k = 0.1250-0.1245-0.3591 (295295 PWs)   bands (ev):

   -17.6855 -17.6762 -17.3133 -17.3043 -17.3030 -17.3001 -17.2352 -17.2288
   -15.5450 -15.5427 -14.0702 -14.0689 -14.0649 -14.0645 -14.0560 -14.0537
   -14.0527 -14.0511 -14.0499 -14.0481 -14.0464 -14.0435 -14.0340 -14.0319
   -14.0316 -14.0305 -14.0300 -14.0298 -14.0291 -14.0276 -14.0275 -14.0258
   -14.0242 -14.0229 -14.0156 -14.0147 -14.0138 -14.0129 -14.0124 -14.0123
   -14.0120 -14.0109 -14.0106 -14.0102 -14.0087 -14.0072 -13.9945 -13.9935
   -13.9928 -13.9916 -10.2662 -10.2648 -10.2530 -10.2515 -10.2376 -10.2299
    -9.5422  -9.5392  -9.4293  -9.3746  -9.2969  -9.2387  -9.2379  -9.2117
    -9.1722  -9.1663  -9.0227  -9.0121  -8.9920  -8.9841  -8.9624  -8.9564
    -8.9470  -8.9358  -8.9069  -8.9026  -8.8533  -8.8457  -8.8301  -8.7991
    -8.7505  -8.7395  -7.5316  -7.5223  -6.9528  -6.9509  -6.7637  -6.7519
    -6.7484  -6.7455  -6.7378  -6.7336  -6.7254  -6.7245  -6.7184  -6.7123
    -6.6658  -6.6452  -5.5389  -5.3673  -5.2085  -5.2046  -5.1333  -5.0959
    -4.9687  -4.9324  -4.7255  -4.6253  -4.6077  -4.6004  -4.5792  -4.5740
    -4.5667  -4.5049  -3.6500  -3.6492  -3.1142  -3.1085  -2.6226  -2.6090
    -2.6003  -2.5935  -2.5803  -2.5775  -2.5570  -2.5532  -2.5344  -2.5216
    -2.5182  -2.5126  -0.5847  -0.5476  -0.5362  -0.4896  -0.4034  -0.3656
    -0.3573  -0.3381  -0.2425  -0.2058  -0.1899  -0.1002   0.0827   0.1495
     0.3072   0.3436   0.4198   0.4567   0.4950   0.5123   0.5403   0.5729
     0.5957   0.5976   0.6304   0.6594   0.6670   0.7335   0.8428   0.8741
     0.8841   0.9162   0.9709   1.0065   1.0558   1.0843   1.1116   1.1136
     1.1495   1.1675   1.1830   1.2005   1.2951   1.3125   1.3321   1.3479
     1.3561   1.3599   1.3835   1.4100   1.4529   1.4646   1.4838   1.5235
     1.5434   1.5522   1.5680   1.5723   1.6178   1.6208   1.6438   1.6519
     1.7084   1.7219   1.7330   1.7714   1.7916   1.8259   1.8428   1.8541
     1.8870   1.8931   2.1040   2.1387

          k =-0.1250-0.3734 0.1197 (295322 PWs)   bands (ev):

   -17.6855 -17.6762 -17.3133 -17.3043 -17.3030 -17.3001 -17.2352 -17.2288
   -15.5450 -15.5427 -14.0719 -14.0709 -14.0625 -14.0624 -14.0572 -14.0564
   -14.0509 -14.0500 -14.0480 -14.0472 -14.0463 -14.0442 -14.0340 -14.0321
   -14.0313 -14.0306 -14.0304 -14.0299 -14.0290 -14.0281 -14.0278 -14.0260
   -14.0243 -14.0230 -14.0156 -14.0148 -14.0138 -14.0130 -14.0124 -14.0123
   -14.0120 -14.0109 -14.0106 -14.0102 -14.0087 -14.0072 -13.9945 -13.9935
   -13.9929 -13.9916 -10.2625 -10.2610 -10.2564 -10.2538 -10.2387 -10.2310
    -9.5501  -9.5456  -9.4057  -9.3457  -9.3111  -9.2466  -9.2400  -9.1834
    -9.1581  -9.1505  -9.0928  -9.0920  -9.0142  -8.9924  -8.9430  -8.9375
    -8.9290  -8.9213  -8.9104  -8.8939  -8.8502  -8.8271  -8.8249  -8.7838
    -8.7558  -8.7430  -7.5311  -7.5219  -6.9526  -6.9507  -6.7629  -6.7530
    -6.7497  -6.7484  -6.7396  -6.7356  -6.7260  -6.7247  -6.7180  -6.7120
    -6.6625  -6.6427  -5.5388  -5.3694  -5.2094  -5.2054  -5.1259  -5.0998
    -4.9638  -4.9412  -4.7176  -4.6308  -4.6028  -4.5946  -4.5839  -4.5783
    -4.5623  -4.4931  -3.6506  -3.6497  -3.1142  -3.1085  -2.6258  -2.6134
    -2.5936  -2.5868  -2.5774  -2.5715  -2.5626  -2.5580  -2.5376  -2.5227
    -2.5198  -2.5142  -0.6559  -0.6191  -0.5913  -0.5473  -0.5196  -0.4816
    -0.4493  -0.3785  -0.2530  -0.0832  -0.0491   0.0368   0.1519   0.1541
     0.1945   0.3857   0.4172   0.4789   0.5148   0.5299   0.5804   0.5895
     0.6185   0.6392   0.6755   0.7350   0.7691   0.8255   0.8608   0.9099
     0.9212   0.9550   1.0437   1.0485   1.0838   1.0850   1.1207   1.1275
     1.1520   1.1595   1.1959   1.2123   1.2337   1.2362   1.2682   1.2765
     1.3186   1.3251   1.3329   1.3560   1.4070   1.4123   1.4835   1.4969
     1.5028   1.5442   1.5581   1.5720   1.6025   1.6693   1.6744   1.6825
     1.6850   1.7236   1.7296   1.7870   1.8220   1.8693   1.8845   1.9132
     1.9506   1.9562   2.0289   2.1065

          k =-0.1250 0.3734-0.1197 (295322 PWs)   bands (ev):

   -17.6855 -17.6762 -17.3133 -17.3043 -17.3030 -17.3001 -17.2352 -17.2288
   -15.5450 -15.5427 -14.0719 -14.0709 -14.0625 -14.0624 -14.0572 -14.0564
   -14.0509 -14.0500 -14.0480 -14.0472 -14.0463 -14.0442 -14.0340 -14.0321
   -14.0313 -14.0306 -14.0304 -14.0299 -14.0290 -14.0281 -14.0278 -14.0260
   -14.0243 -14.0230 -14.0156 -14.0148 -14.0138 -14.0130 -14.0124 -14.0123
   -14.0120 -14.0109 -14.0106 -14.0102 -14.0087 -14.0072 -13.9945 -13.9935
   -13.9929 -13.9916 -10.2640 -10.2624 -10.2546 -10.2525 -10.2389 -10.2310
    -9.5495  -9.5462  -9.4099  -9.3459  -9.2906  -9.2655  -9.2400  -9.1828
    -9.1574  -9.1474  -9.0998  -9.0859  -9.0206  -8.9871  -8.9440  -8.9315
    -8.9251  -8.9222  -8.9173  -8.8916  -8.8526  -8.8304  -8.8265  -8.7804
    -8.7574  -8.7405  -7.5311  -7.5218  -6.9527  -6.9507  -6.7627  -6.7533
    -6.7494  -6.7485  -6.7395  -6.7353  -6.7259  -6.7245  -6.7183  -6.7123
    -6.6625  -6.6427  -5.5391  -5.3690  -5.2095  -5.2056  -5.1251  -5.1001
    -4.9647  -4.9414  -4.7219  -4.6244  -4.6045  -4.5955  -4.5820  -4.5790
    -4.5579  -4.4978  -3.6505  -3.6495  -3.1142  -3.1085  -2.6262  -2.6128
    -2.5924  -2.5856  -2.5784  -2.5722  -2.5644  -2.5582  -2.5368  -2.5230
    -2.5195  -2.5136  -0.6593  -0.6174  -0.5912  -0.5571  -0.5230  -0.4754
    -0.4408  -0.3796  -0.2519  -0.0803  -0.0485   0.0292   0.1522   0.1638
     0.2050   0.3797   0.4150   0.4949   0.4991   0.5424   0.5504   0.5881
     0.6257   0.6361   0.6672   0.7475   0.7775   0.8145   0.8417   0.8827
     0.9380   0.9649   1.0342   1.0434   1.0822   1.1048   1.1206   1.1231
     1.1604   1.1717   1.1908   1.2060   1.2201   1.2590   1.2654   1.2864
     1.3291   1.3322   1.3454   1.3594   1.3858   1.3965   1.4918   1.4943
     1.5089   1.5399   1.5589   1.5896   1.5902   1.6586   1.6648   1.6816
     1.7009   1.7116   1.7487   1.7930   1.8165   1.8508   1.8853   1.9153
     1.9448   1.9724   2.0155   2.1140

          k = 0.1250-0.3734-0.1197 (295322 PWs)   bands (ev):

   -17.6855 -17.6762 -17.3133 -17.3043 -17.3030 -17.3001 -17.2352 -17.2288
   -15.5450 -15.5427 -14.0719 -14.0709 -14.0625 -14.0624 -14.0572 -14.0564
   -14.0509 -14.0500 -14.0480 -14.0472 -14.0463 -14.0442 -14.0340 -14.0321
   -14.0313 -14.0306 -14.0304 -14.0299 -14.0290 -14.0281 -14.0278 -14.0260
   -14.0243 -14.0230 -14.0156 -14.0148 -14.0138 -14.0130 -14.0124 -14.0123
   -14.0120 -14.0109 -14.0106 -14.0102 -14.0087 -14.0072 -13.9945 -13.9935
   -13.9929 -13.9916 -10.2639 -10.2624 -10.2546 -10.2525 -10.2389 -10.2310
    -9.5495  -9.5462  -9.4102  -9.3456  -9.2900  -9.2654  -9.2412  -9.1798
    -9.1571  -9.1510  -9.1005  -9.0847  -9.0203  -8.9861  -8.9437  -8.9347
    -8.9258  -8.9198  -8.9170  -8.8921  -8.8517  -8.8306  -8.8268  -8.7800
    -8.7575  -8.7405  -7.5311  -7.5218  -6.9527  -6.9507  -6.7627  -6.7534
    -6.7496  -6.7484  -6.7392  -6.7356  -6.7256  -6.7247  -6.7183  -6.7123
    -6.6625  -6.6427  -5.5390  -5.3691  -5.2096  -5.2056  -5.1250  -5.0999
    -4.9651  -4.9410  -4.7219  -4.6244  -4.6044  -4.5956  -4.5819  -4.5790
    -4.5578  -4.4979  -3.6505  -3.6495  -3.1142  -3.1085  -2.6261  -2.6129
    -2.5923  -2.5857  -2.5780  -2.5719  -2.5645  -2.5590  -2.5364  -2.5229
    -2.5194  -2.5138  -0.6588  -0.6177  -0.5898  -0.5578  -0.5226  -0.4733
    -0.4450  -0.3785  -0.2525  -0.0793  -0.0495   0.0287   0.1530   0.1632
     0.2050   0.3813   0.4139   0.4945   0.4984   0.5428   0.5523   0.5896
     0.6235   0.6354   0.6677   0.7491   0.7767   0.8157   0.8405   0.8829
     0.9373   0.9631   1.0357   1.0454   1.0831   1.1050   1.1204   1.1215
     1.1604   1.1731   1.1889   1.2053   1.2207   1.2639   1.2669   1.2825
     1.3278   1.3319   1.3460   1.3583   1.3850   1.3948   1.4925   1.4954
     1.5072   1.5368   1.5585   1.5911   1.5935   1.6578   1.6654   1.6807
     1.7034   1.7118   1.7461   1.7924   1.8164   1.8516   1.8837   1.9168
     1.9458   1.9706   2.0170   2.1143

          k =-0.1250-0.3734 0.3591 (295322 PWs)   bands (ev):

   -17.6855 -17.6762 -17.3133 -17.3043 -17.3030 -17.3001 -17.2352 -17.2288
   -15.5450 -15.5427 -14.0701 -14.0687 -14.0647 -14.0643 -14.0552 -14.0542
   -14.0519 -14.0508 -14.0495 -14.0474 -14.0467 -14.0446 -14.0340 -14.0321
   -14.0313 -14.0305 -14.0305 -14.0299 -14.0290 -14.0281 -14.0278 -14.0259
   -14.0243 -14.0230 -14.0156 -14.0147 -14.0138 -14.0130 -14.0124 -14.0123
   -14.0120 -14.0109 -14.0106 -14.0102 -14.0087 -14.0072 -13.9945 -13.9935
   -13.9929 -13.9916 -10.2621 -10.2613 -10.2563 -10.2538 -10.2387 -10.2310
    -9.5451  -9.5421  -9.3866  -9.3542  -9.2877  -9.2710  -9.2528  -9.2305
    -9.2126  -9.1845  -9.0195  -9.0182  -8.9797  -8.9766  -8.9521  -8.9481
    -8.9351  -8.9265  -8.8982  -8.8971  -8.8664  -8.8508  -8.8076  -8.7837
    -8.7668  -8.7548  -7.5313  -7.5222  -6.9526  -6.9507  -6.7630  -6.7511
    -6.7486  -6.7456  -6.7373  -6.7343  -6.7254  -6.7243  -6.7196  -6.7132
    -6.6660  -6.6454  -5.4293  -5.2707  -5.2549  -5.2077  -5.2006  -5.0930
    -4.9986  -4.8523  -4.8321  -4.7043  -4.5997  -4.5956  -4.5804  -4.5767
    -4.5721  -4.5534  -3.6508  -3.6501  -3.1142  -3.1086  -2.6203  -2.6085
    -2.5946  -2.5890  -2.5800  -2.5772  -2.5590  -2.5558  -2.5370  -2.5220
    -2.5195  -2.5132  -0.5259  -0.5005  -0.4466  -0.4198  -0.3337  -0.2739
    -0.2508  -0.1714  -0.1452  -0.0889  -0.0358   0.0151   0.1334   0.1373
     0.2309   0.2447   0.3461   0.3608   0.4302   0.4680   0.4818   0.5241
     0.5650   0.5806   0.6102   0.6257   0.7383   0.7580   0.7916   0.8213
     0.8666   0.8969   0.9288   0.9448   0.9768   0.9790   1.0378   1.0563
     1.1037   1.1049   1.1669   1.1762   1.1995   1.2066   1.2779   1.2800
     1.3474   1.3577   1.3894   1.3936   1.4480   1.4518   1.4930   1.4968
     1.5424   1.5648   1.5782   1.5890   1.5973   1.6381   1.6747   1.6828
     1.7013   1.7275   1.7593   1.7648   1.7800   1.8127   1.8571   1.8787
     1.9094   1.9201   1.9670   1.9906

          k =-0.1250 0.3734-0.3591 (295322 PWs)   bands (ev):

   -17.6855 -17.6762 -17.3133 -17.3043 -17.3030 -17.3001 -17.2352 -17.2288
   -15.5450 -15.5427 -14.0701 -14.0687 -14.0647 -14.0643 -14.0552 -14.0542
   -14.0519 -14.0508 -14.0495 -14.0474 -14.0467 -14.0446 -14.0340 -14.0321
   -14.0313 -14.0305 -14.0305 -14.0299 -14.0290 -14.0281 -14.0278 -14.0259
   -14.0243 -14.0230 -14.0156 -14.0147 -14.0138 -14.0130 -14.0124 -14.0123
   -14.0120 -14.0109 -14.0106 -14.0102 -14.0087 -14.0072 -13.9945 -13.9935
   -13.9929 -13.9916 -10.2634 -10.2628 -10.2545 -10.2525 -10.2388 -10.2310
    -9.5449  -9.5421  -9.3903  -9.3547  -9.2886  -9.2579  -9.2544  -9.2356
    -9.2030  -9.1951  -9.0233  -9.0142  -8.9893  -8.9739  -8.9479  -8.9448
    -8.9360  -8.9214  -8.9063  -8.8935  -8.8690  -8.8483  -8.8116  -8.7850
    -8.7650  -8.7522  -7.5313  -7.5221  -6.9527  -6.9508  -6.7630  -6.7514
    -6.7478  -6.7457  -6.7370  -6.7342  -6.7253  -6.7245  -6.7200  -6.7134
    -6.6660  -6.6454  -5.4292  -5.2703  -5.2548  -5.2079  -5.2007  -5.0936
    -4.9994  -4.8523  -4.8331  -4.6999  -4.6017  -4.5972  -4.5807  -4.5758
    -4.5704  -4.5546  -3.6507  -3.6499  -3.1142  -3.1086  -2.6204  -2.6082
    -2.5939  -2.5884  -2.5800  -2.5774  -2.5610  -2.5564  -2.5360  -2.5223
    -2.5189  -2.5131  -0.5311  -0.5057  -0.4471  -0.4143  -0.3338  -0.2740
    -0.2365  -0.1715  -0.1590  -0.0812  -0.0328   0.0116   0.1341   0.1429
     0.2298   0.2479   0.3419   0.3691   0.4331   0.4653   0.4759   0.5024
     0.5756   0.5812   0.6163   0.6168   0.7550   0.7611   0.7859   0.8070
     0.8542   0.8787   0.9408   0.9566   0.9622   0.9775   1.0324   1.0567
     1.1000   1.1050   1.1666   1.1692   1.2074   1.2337   1.2854   1.2881
     1.3495   1.3621   1.3870   1.3895   1.4484   1.4574   1.4888   1.5023
     1.5364   1.5513   1.5722   1.5956   1.6248   1.6403   1.6580   1.6776
     1.7082   1.7103   1.7505   1.7860   1.8061   1.8372   1.8415   1.8615
     1.8887   1.8929   1.9794   2.0051

          k = 0.1250-0.3734-0.3591 (295322 PWs)   bands (ev):

   -17.6855 -17.6762 -17.3133 -17.3043 -17.3030 -17.3001 -17.2352 -17.2288
   -15.5450 -15.5427 -14.0701 -14.0687 -14.0647 -14.0643 -14.0552 -14.0542
   -14.0519 -14.0508 -14.0495 -14.0474 -14.0467 -14.0446 -14.0340 -14.0321
   -14.0313 -14.0305 -14.0305 -14.0299 -14.0290 -14.0281 -14.0278 -14.0259
   -14.0243 -14.0230 -14.0156 -14.0147 -14.0138 -14.0130 -14.0124 -14.0123
   -14.0120 -14.0109 -14.0106 -14.0102 -14.0087 -14.0072 -13.9945 -13.9935
   -13.9929 -13.9916 -10.2634 -10.2628 -10.2545 -10.2525 -10.2388 -10.2310
    -9.5448  -9.5421  -9.3913  -9.3529  -9.2901  -9.2573  -9.2548  -9.2334
    -9.2048  -9.1953  -9.0244  -9.0145  -8.9868  -8.9719  -8.9502  -8.9443
    -8.9392  -8.9193  -8.9061  -8.8955  -8.8664  -8.8493  -8.8118  -8.7845
    -8.7652  -8.7523  -7.5313  -7.5221  -6.9527  -6.9508  -6.7630  -6.7513
    -6.7483  -6.7455  -6.7365  -6.7347  -6.7251  -6.7245  -6.7199  -6.7134
    -6.6660  -6.6454  -5.4290  -5.2727  -5.2527  -5.2079  -5.2005  -5.0936
    -4.9992  -4.8543  -4.8311  -4.7001  -4.6015  -4.5973  -4.5807  -4.5757
    -4.5702  -4.5548  -3.6507  -3.6499  -3.1142  -3.1086  -2.6203  -2.6084
    -2.5938  -2.5884  -2.5795  -2.5774  -2.5608  -2.5571  -2.5357  -2.5221
    -2.5189  -2.5133  -0.5327  -0.5013  -0.4520  -0.4105  -0.3330  -0.2757
    -0.2359  -0.1736  -0.1581  -0.0815  -0.0349   0.0095   0.1364   0.1414
     0.2294   0.2514   0.3463   0.3697   0.4320   0.4638   0.4734   0.5042
     0.5755   0.5795   0.6158   0.6180   0.7523   0.7629   0.7869   0.8084
     0.8533   0.8804   0.9373   0.9566   0.9581   0.9821   1.0329   1.0600
     1.0976   1.1060   1.1656   1.1689   1.2056   1.2373   1.2844   1.2861
     1.3520   1.3616   1.3863   1.3891   1.4453   1.4578   1.4866   1.5065
     1.5347   1.5535   1.5716   1.5950   1.6258   1.6396   1.6583   1.6759
     1.7094   1.7118   1.7533   1.7828   1.8013   1.8352   1.8450   1.8643
     1.8874   1.8938   1.9798   2.0052

          k =-0.3750-0.1245 0.1197 (295296 PWs)   bands (ev):

   -17.6855 -17.6762 -17.3133 -17.3042 -17.3031 -17.3001 -17.2352 -17.2288
   -15.5450 -15.5427 -14.0719 -14.0710 -14.0625 -14.0625 -14.0572 -14.0563
   -14.0507 -14.0498 -14.0479 -14.0470 -14.0462 -14.0441 -14.0340 -14.0319
   -14.0317 -14.0307 -14.0304 -14.0298 -14.0293 -14.0281 -14.0279 -14.0260
   -14.0244 -14.0230 -14.0156 -14.0148 -14.0138 -14.0130 -14.0124 -14.0122
   -14.0121 -14.0109 -14.0106 -14.0102 -14.0087 -14.0073 -13.9945 -13.9935
   -13.9929 -13.9916 -10.2625 -10.2605 -10.2580 -10.2550 -10.2377 -10.2301
    -9.5404  -9.5366  -9.4292  -9.3898  -9.2787  -9.2360  -9.2339  -9.1869
    -9.1415  -9.1367  -9.0933  -9.0913  -9.0325  -9.0015  -8.9592  -8.9455
    -8.9213  -8.9174  -8.9064  -8.9030  -8.8297  -8.8174  -8.8053  -8.7846
    -8.7728  -8.7570  -7.5316  -7.5224  -6.9529  -6.9510  -6.7646  -6.7550
    -6.7493  -6.7484  -6.7382  -6.7342  -6.7261  -6.7248  -6.7158  -6.7100
    -6.6625  -6.6427  -5.5313  -5.3500  -5.2093  -5.2055  -5.1254  -5.1155
    -4.9540  -4.9396  -4.7407  -4.6362  -4.6041  -4.5972  -4.5781  -4.5732
    -4.5698  -4.5029  -3.6505  -3.6496  -3.1143  -3.1085  -2.6275  -2.6151
    -2.5947  -2.5892  -2.5803  -2.5747  -2.5684  -2.5621  -2.5292  -2.5201
    -2.5134  -2.5118  -0.6667  -0.6503  -0.5613  -0.5426  -0.5117  -0.4650
    -0.3598  -0.3105  -0.2281  -0.1830  -0.0806  -0.0126   0.1089   0.1938
     0.2531   0.4011   0.4464   0.4658   0.4833   0.5481   0.5511   0.6014
     0.6309   0.6635   0.7038   0.7546   0.7858   0.8097   0.8606   0.8853
     0.9147   0.9955   1.0151   1.0337   1.0754   1.1159   1.1364   1.1371
     1.1783   1.1888   1.2135   1.2166   1.2282   1.2496   1.2523   1.2883
     1.3234   1.3368   1.3496   1.3688   1.3810   1.3843   1.4165   1.4308
     1.4799   1.4818   1.5489   1.5685   1.6000   1.6048   1.6708   1.6917
     1.7237   1.7259   1.7474   1.7996   1.8306   1.8637   1.8710   1.8860
     1.9260   1.9395   1.9987   2.0736

          k =-0.3750 0.1245-0.1197 (295296 PWs)   bands (ev):

   -17.6855 -17.6762 -17.3133 -17.3042 -17.3031 -17.3001 -17.2352 -17.2288
   -15.5450 -15.5427 -14.0719 -14.0710 -14.0625 -14.0625 -14.0572 -14.0563
   -14.0507 -14.0498 -14.0479 -14.0470 -14.0462 -14.0441 -14.0340 -14.0319
   -14.0317 -14.0307 -14.0304 -14.0298 -14.0293 -14.0281 -14.0279 -14.0260
   -14.0244 -14.0230 -14.0156 -14.0148 -14.0138 -14.0130 -14.0124 -14.0122
   -14.0121 -14.0109 -14.0106 -14.0102 -14.0087 -14.0073 -13.9945 -13.9935
   -13.9929 -13.9916 -10.2643 -10.2621 -10.2557 -10.2538 -10.2378 -10.2300
    -9.5398  -9.5369  -9.4367  -9.3812  -9.2715  -9.2477  -9.2321  -9.1862
    -9.1461  -9.1302  -9.0985  -9.0879  -9.0352  -8.9979  -8.9620  -8.9426
    -8.9208  -8.9111  -8.9087  -8.9053  -8.8363  -8.8191  -8.8046  -8.7824
    -8.7735  -8.7538  -7.5316  -7.5222  -6.9530  -6.9510  -6.7644  -6.7553
    -6.7494  -6.7483  -6.7379  -6.7342  -6.7259  -6.7248  -6.7161  -6.7104
    -6.6625  -6.6427  -5.5315  -5.3495  -5.2095  -5.2057  -5.1261  -5.1142
    -4.9539  -4.9408  -4.7446  -4.6298  -4.6062  -4.5970  -4.5783  -4.5740
    -4.5643  -4.5075  -3.6504  -3.6494  -3.1143  -3.1085  -2.6277  -2.6148
    -2.5938  -2.5875  -2.5815  -2.5756  -2.5684  -2.5633  -2.5287  -2.5205
    -2.5133  -2.5111  -0.6696  -0.6491  -0.5567  -0.5498  -0.5199  -0.4597
    -0.3481  -0.3144  -0.2269  -0.1933  -0.0722  -0.0034   0.1102   0.1966
     0.2532   0.3958   0.4514   0.4660   0.4723   0.5385   0.5564   0.5986
     0.6418   0.6524   0.6964   0.7606   0.7809   0.8178   0.8600   0.8715
     0.9209   0.9732   1.0022   1.0534   1.0895   1.0932   1.1360   1.1470
     1.1710   1.1884   1.2074   1.2122   1.2408   1.2573   1.2829   1.2996
     1.3148   1.3394   1.3520   1.3577   1.3731   1.3848   1.4213   1.4432
     1.4687   1.4907   1.5595   1.5722   1.5910   1.6221   1.6618   1.6742
     1.7100   1.7245   1.7606   1.8067   1.8218   1.8661   1.8732   1.8938
     1.9073   1.9499   1.9811   2.0860

          k = 0.3750-0.1245-0.1197 (295296 PWs)   bands (ev):

   -17.6855 -17.6762 -17.3133 -17.3042 -17.3031 -17.3001 -17.2352 -17.2288
   -15.5450 -15.5427 -14.0719 -14.0710 -14.0625 -14.0625 -14.0572 -14.0563
   -14.0507 -14.0498 -14.0479 -14.0470 -14.0462 -14.0441 -14.0340 -14.0319
   -14.0317 -14.0307 -14.0304 -14.0298 -14.0293 -14.0281 -14.0279 -14.0260
   -14.0244 -14.0230 -14.0156 -14.0148 -14.0138 -14.0130 -14.0124 -14.0122
   -14.0121 -14.0109 -14.0106 -14.0102 -14.0087 -14.0073 -13.9945 -13.9935
   -13.9929 -13.9916 -10.2643 -10.2621 -10.2557 -10.2538 -10.2378 -10.2300
    -9.5398  -9.5368  -9.4370  -9.3811  -9.2710  -9.2472  -9.2318  -9.1882
    -9.1483  -9.1262  -9.0978  -9.0900  -9.0351  -8.9974  -8.9620  -8.9424
    -8.9177  -8.9152  -8.9120  -8.9019  -8.8360  -8.8191  -8.8050  -8.7808
    -8.7747  -8.7538  -7.5316  -7.5222  -6.9530  -6.9510  -6.7644  -6.7551
    -6.7492  -6.7486  -6.7382  -6.7340  -6.7258  -6.7248  -6.7160  -6.7104
    -6.6625  -6.6427  -5.5316  -5.3495  -5.2095  -5.2057  -5.1261  -5.1141
    -4.9543  -4.9404  -4.7443  -4.6300  -4.6063  -4.5969  -4.5783  -4.5740
    -4.5645  -4.5075  -3.6504  -3.6494  -3.1143  -3.1085  -2.6279  -2.6145
    -2.5934  -2.5879  -2.5810  -2.5756  -2.5695  -2.5628  -2.5285  -2.5203
    -2.5136  -2.5110  -0.6695  -0.6488  -0.5564  -0.5520  -0.5174  -0.4598
    -0.3487  -0.3144  -0.2278  -0.1927  -0.0736  -0.0021   0.1090   0.1959
     0.2544   0.3965   0.4516   0.4657   0.4731   0.5382   0.5555   0.6007
     0.6412   0.6519   0.6954   0.7609   0.7827   0.8165   0.8625   0.8715
     0.9199   0.9738   0.9976   1.0513   1.0906   1.0932   1.1379   1.1460
     1.1743   1.1891   1.2098   1.2138   1.2419   1.2555   1.2884   1.3017
     1.3142   1.3312   1.3507   1.3597   1.3708   1.3823   1.4209   1.4437
     1.4686   1.4901   1.5572   1.5724   1.5928   1.6191   1.6624   1.6743
     1.7116   1.7270   1.7590   1.8059   1.8204   1.8665   1.8765   1.8925
     1.9087   1.9463   1.9838   2.0866

          k =-0.3750-0.1245 0.3591 (295281 PWs)   bands (ev):

   -17.6855 -17.6762 -17.3133 -17.3042 -17.3031 -17.3001 -17.2352 -17.2288
   -15.5450 -15.5427 -14.0701 -14.0687 -14.0648 -14.0643 -14.0551 -14.0540
   -14.0517 -14.0506 -14.0496 -14.0472 -14.0466 -14.0444 -14.0340 -14.0319
   -14.0317 -14.0307 -14.0304 -14.0298 -14.0293 -14.0281 -14.0279 -14.0260
   -14.0244 -14.0230 -14.0156 -14.0147 -14.0139 -14.0130 -14.0124 -14.0122
   -14.0121 -14.0109 -14.0106 -14.0102 -14.0087 -14.0073 -13.9945 -13.9935
   -13.9929 -13.9916 -10.2618 -10.2608 -10.2579 -10.2551 -10.2377 -10.2302
    -9.5378  -9.5349  -9.4001  -9.3624  -9.3283  -9.2856  -9.2384  -9.2178
    -9.1735  -9.1638  -9.0227  -9.0145  -8.9974  -8.9777  -8.9685  -8.9567
    -8.9397  -8.9364  -8.8847  -8.8836  -8.8478  -8.8346  -8.8113  -8.7903
    -8.7756  -8.7644  -7.5319  -7.5227  -6.9530  -6.9510  -6.7644  -6.7539
    -6.7475  -6.7455  -6.7365  -6.7327  -6.7259  -6.7250  -6.7166  -6.7109
    -6.6660  -6.6454  -5.4219  -5.2685  -5.2256  -5.2081  -5.2034  -5.0719
    -5.0226  -4.8681  -4.8517  -4.7146  -4.5996  -4.5941  -4.5814  -4.5752
    -4.5725  -4.5577  -3.6507  -3.6500  -3.1142  -3.1086  -2.6223  -2.6110
    -2.5956  -2.5907  -2.5829  -2.5783  -2.5646  -2.5592  -2.5293  -2.5206
    -2.5139  -2.5113  -0.5161  -0.4802  -0.4110  -0.3966  -0.2911  -0.2667
    -0.2297  -0.1978  -0.1549  -0.1288  -0.0349  -0.0064   0.0956   0.1136
     0.2818   0.2910   0.3597   0.3660   0.4198   0.4417   0.4936   0.5122
     0.5289   0.5697   0.6230   0.6492   0.7620   0.7641   0.8225   0.8488
     0.8877   0.8908   0.9690   0.9699   1.0112   1.0199   1.0283   1.0479
     1.1068   1.1175   1.1469   1.1497   1.1922   1.2143   1.2459   1.2720
     1.3457   1.3517   1.3724   1.3828   1.4057   1.4119   1.4526   1.4578
     1.5368   1.5570   1.5622   1.5874   1.6182   1.6235   1.6489   1.6739
     1.7081   1.7209   1.7304   1.7609   1.8199   1.8286   1.8518   1.8686
     1.8830   1.8902   1.9562   1.9765

          k =-0.3750 0.1245-0.3591 (295281 PWs)   bands (ev):

   -17.6855 -17.6762 -17.3133 -17.3042 -17.3031 -17.3001 -17.2352 -17.2288
   -15.5450 -15.5427 -14.0701 -14.0687 -14.0648 -14.0643 -14.0551 -14.0540
   -14.0517 -14.0506 -14.0496 -14.0472 -14.0466 -14.0444 -14.0340 -14.0319
   -14.0317 -14.0307 -14.0304 -14.0298 -14.0293 -14.0281 -14.0279 -14.0260
   -14.0244 -14.0230 -14.0156 -14.0147 -14.0139 -14.0130 -14.0124 -14.0122
   -14.0121 -14.0109 -14.0106 -14.0102 -14.0087 -14.0073 -13.9945 -13.9935
   -13.9929 -13.9916 -10.2635 -10.2626 -10.2557 -10.2537 -10.2378 -10.2302
    -9.5375  -9.5346  -9.4061  -9.3591  -9.3289  -9.2801  -9.2299  -9.2266
    -9.1713  -9.1683  -9.0219  -9.0179  -8.9937  -8.9803  -8.9697  -8.9565
    -8.9387  -8.9337  -8.8900  -8.8781  -8.8509  -8.8308  -8.8158  -8.7952
    -8.7714  -8.7615  -7.5318  -7.5227  -6.9530  -6.9511  -6.7643  -6.7540
    -6.7473  -6.7454  -6.7358  -6.7332  -6.7258  -6.7252  -6.7169  -6.7111
    -6.6660  -6.6453  -5.4218  -5.2674  -5.2269  -5.2082  -5.2033  -5.0722
    -5.0230  -4.8683  -4.8528  -4.7103  -4.6016  -4.5957  -4.5813  -4.5751
    -4.5701  -4.5588  -3.6506  -3.6498  -3.1142  -3.1086  -2.6221  -2.6111
    -2.5956  -2.5893  -2.5818  -2.5798  -2.5652  -2.5603  -2.5287  -2.5210
    -2.5136  -2.5111  -0.5176  -0.4868  -0.4064  -0.4011  -0.2856  -0.2627
    -0.2326  -0.2049  -0.1491  -0.1320  -0.0196  -0.0056   0.1024   0.1123
     0.2728   0.2965   0.3560   0.3659   0.4249   0.4292   0.4949   0.5037
     0.5342   0.5616   0.6332   0.6417   0.7537   0.7739   0.8330   0.8516
     0.8852   0.9031   0.9384   0.9403   0.9840   1.0129   1.0598   1.0611
     1.1050   1.1164   1.1278   1.1498   1.2218   1.2338   1.2595   1.2634
     1.3488   1.3527   1.3746   1.3759   1.4089   1.4154   1.4549   1.4589
     1.5400   1.5541   1.5599   1.5706   1.6325   1.6418   1.6602   1.6782
     1.6999   1.7027   1.7411   1.7812   1.8171   1.8240   1.8408   1.8481
     1.8605   1.8759   1.9708   1.9951

          k = 0.3750-0.1245-0.3591 (295281 PWs)   bands (ev):

   -17.6855 -17.6762 -17.3133 -17.3042 -17.3031 -17.3001 -17.2352 -17.2288
   -15.5450 -15.5427 -14.0701 -14.0687 -14.0648 -14.0643 -14.0551 -14.0540
   -14.0517 -14.0506 -14.0496 -14.0472 -14.0466 -14.0444 -14.0340 -14.0319
   -14.0317 -14.0307 -14.0304 -14.0298 -14.0293 -14.0281 -14.0279 -14.0260
   -14.0244 -14.0230 -14.0156 -14.0147 -14.0139 -14.0130 -14.0124 -14.0122
   -14.0121 -14.0109 -14.0106 -14.0102 -14.0087 -14.0073 -13.9945 -13.9935
   -13.9929 -13.9916 -10.2635 -10.2626 -10.2557 -10.2537 -10.2378 -10.2302
    -9.5376  -9.5344  -9.4069  -9.3584  -9.3285  -9.2800  -9.2302  -9.2268
    -9.1728  -9.1670  -9.0230  -9.0172  -8.9934  -8.9778  -8.9710  -8.9570
    -8.9375  -8.9350  -8.8917  -8.8770  -8.8497  -8.8317  -8.8164  -8.7939
    -8.7721  -8.7614  -7.5318  -7.5227  -6.9530  -6.9511  -6.7643  -6.7538
    -6.7471  -6.7458  -6.7363  -6.7328  -6.7258  -6.7250  -6.7168  -6.7112
    -6.6660  -6.6453  -5.4218  -5.2681  -5.2260  -5.2082  -5.2032  -5.0725
    -5.0232  -4.8695  -4.8510  -4.7108  -4.6017  -4.5956  -4.5813  -4.5751
    -4.5705  -4.5586  -3.6506  -3.6499  -3.1142  -3.1086  -2.6224  -2.6107
    -2.5948  -2.5900  -2.5831  -2.5782  -2.5661  -2.5600  -2.5285  -2.5206
    -2.5140  -2.5111  -0.5194  -0.4842  -0.4086  -0.3983  -0.2865  -0.2629
    -0.2301  -0.2035  -0.1501  -0.1357  -0.0242  -0.0042   0.1004   0.1138
     0.2764   0.2982   0.3561   0.3673   0.4267   0.4291   0.4925   0.5010
     0.5338   0.5643   0.6348   0.6389   0.7562   0.7717   0.8334   0.8503
     0.8848   0.9071   0.9356   0.9381   0.9820   1.0145   1.0590   1.0646
     1.1047   1.1170   1.1312   1.1467   1.2237   1.2365   1.2532   1.2684
     1.3477   1.3517   1.3711   1.3761   1.4085   1.4154   1.4554   1.4571
     1.5421   1.5540   1.5604   1.5705   1.6261   1.6420   1.6607   1.6793
     1.7018   1.7058   1.7406   1.7809   1.8160   1.8208   1.8420   1.8526
     1.8628   1.8716   1.9718   1.9951

          k =-0.3750-0.3734 0.1197 (295366 PWs)   bands (ev):

   -17.6855 -17.6762 -17.3133 -17.3042 -17.3031 -17.3001 -17.2352 -17.2288
   -15.5450 -15.5427 -14.0718 -14.0708 -14.0623 -14.0622 -14.0568 -14.0563
   -14.0500 -14.0488 -14.0478 -14.0473 -14.0462 -14.0447 -14.0339 -14.0322
   -14.0318 -14.0310 -14.0307 -14.0300 -14.0295 -14.0284 -14.0281 -14.0261
   -14.0245 -14.0231 -14.0156 -14.0148 -14.0138 -14.0130 -14.0124 -14.0122
   -14.0121 -14.0109 -14.0106 -14.0103 -14.0087 -14.0073 -13.9945 -13.9935
   -13.9929 -13.9916 -10.2620 -10.2614 -10.2561 -10.2535 -10.2395 -10.2313
[...]
     1.4699   1.4732   1.5381   1.5571   1.5751   1.5803   1.6219   1.6270
     1.6915   1.6966   1.7359   1.7382   1.8033   1.8122   1.8726   1.8827
     1.9255   1.9323   1.9577   1.9591

          k =-0.3750 0.3734-0.3592 (295299 PWs)   bands (ev):

   -17.6845 -17.6809 -17.3126 -17.3074 -17.3062 -17.3055 -17.2391 -17.2347
   -15.5460 -15.5457 -14.0703 -14.0691 -14.0651 -14.0643 -14.0546 -14.0541
   -14.0513 -14.0504 -14.0499 -14.0483 -14.0466 -14.0451 -14.0342 -14.0324
   -14.0318 -14.0313 -14.0312 -14.0304 -14.0299 -14.0286 -14.0284 -14.0267
   -14.0249 -14.0233 -14.0152 -14.0150 -14.0144 -14.0133 -14.0126 -14.0123
   -14.0120 -14.0115 -14.0109 -14.0108 -14.0091 -14.0074 -13.9942 -13.9937
   -13.9934 -13.9919 -10.2663 -10.2656 -10.2576 -10.2561 -10.2391 -10.2338
    -9.5412  -9.5397  -9.3722  -9.3298  -9.3102  -9.2820  -9.2560  -9.2553
    -9.2128  -9.2039  -9.0234  -9.0160  -9.0014  -8.9921  -8.9398  -8.9383
    -8.9307  -8.9228  -8.8806  -8.8649  -8.8509  -8.8389  -8.8129  -8.7936
    -8.7777  -8.7673  -7.5334  -7.5256  -6.9549  -6.9525  -6.7630  -6.7564
    -6.7462  -6.7458  -6.7385  -6.7359  -6.7296  -6.7258  -6.7188  -6.7144
    -6.6620  -6.6557  -5.3167  -5.2123  -5.2083  -5.1694  -5.1498  -5.1149
    -5.0039  -4.9770  -4.9619  -4.8208  -4.6034  -4.5998  -4.5843  -4.5809
    -4.5752  -4.5724  -3.6591  -3.6483  -3.1127  -3.1121  -2.6185  -2.6131
    -2.5908  -2.5897  -2.5817  -2.5780  -2.5668  -2.5608  -2.5295  -2.5239
    -2.5145  -2.5125  -0.3231  -0.3192  -0.3029  -0.2666  -0.1981  -0.1731
    -0.1346  -0.1212  -0.0991  -0.0503  -0.0325  -0.0043   0.1363   0.1629
     0.2258   0.2812   0.3305   0.3405   0.3580   0.3759   0.4120   0.4428
     0.4947   0.5129   0.5502   0.5530   0.7477   0.7980   0.8284   0.8335
     0.8532   0.8762   0.9167   0.9336   0.9699   0.9717   1.0048   1.0297
     1.0578   1.0779   1.1059   1.1203   1.1879   1.1928   1.2320   1.2534
     1.2816   1.2921   1.3273   1.3488   1.4079   1.4108   1.4234   1.4465
     1.4836   1.4849   1.5432   1.5484   1.5674   1.5828   1.6182   1.6330
     1.6817   1.6988   1.7298   1.7596   1.8187   1.8263   1.8504   1.8591
     1.8917   1.9136   1.9729   1.9962

          k = 0.3750-0.3734-0.3592 (295299 PWs)   bands (ev):

   -17.6845 -17.6809 -17.3126 -17.3074 -17.3062 -17.3055 -17.2391 -17.2347
   -15.5460 -15.5457 -14.0703 -14.0691 -14.0651 -14.0643 -14.0546 -14.0541
   -14.0513 -14.0504 -14.0499 -14.0483 -14.0466 -14.0451 -14.0342 -14.0324
   -14.0318 -14.0313 -14.0312 -14.0304 -14.0299 -14.0286 -14.0284 -14.0267
   -14.0249 -14.0233 -14.0152 -14.0150 -14.0144 -14.0133 -14.0126 -14.0123
   -14.0120 -14.0115 -14.0109 -14.0108 -14.0091 -14.0074 -13.9942 -13.9937
   -13.9934 -13.9919 -10.2663 -10.2657 -10.2576 -10.2561 -10.2391 -10.2338
    -9.5413  -9.5395  -9.3732  -9.3286  -9.3101  -9.2810  -9.2565  -9.2556
    -9.2137  -9.2037  -9.0246  -9.0162  -9.0007  -8.9899  -8.9411  -8.9396
    -8.9292  -8.9233  -8.8808  -8.8658  -8.8487  -8.8399  -8.8134  -8.7926
    -8.7782  -8.7673  -7.5334  -7.5256  -6.9549  -6.9525  -6.7630  -6.7563
    -6.7466  -6.7456  -6.7388  -6.7357  -6.7294  -6.7259  -6.7186  -6.7146
    -6.6620  -6.6557  -5.3165  -5.2125  -5.2085  -5.1709  -5.1479  -5.1146
    -5.0053  -4.9771  -4.9603  -4.8213  -4.6034  -4.5999  -4.5843  -4.5808
    -4.5753  -4.5724  -3.6591  -3.6483  -3.1127  -3.1121  -2.6185  -2.6132
    -2.5910  -2.5894  -2.5815  -2.5777  -2.5672  -2.5612  -2.5293  -2.5235
    -2.5153  -2.5121  -0.3205  -0.3193  -0.3015  -0.2678  -0.1985  -0.1714
    -0.1389  -0.1196  -0.0996  -0.0513  -0.0351  -0.0077   0.1385   0.1610
     0.2312   0.2825   0.3348   0.3406   0.3555   0.3785   0.4113   0.4410
     0.4928   0.5142   0.5495   0.5519   0.7473   0.7972   0.8305   0.8344
     0.8528   0.8786   0.9133   0.9305   0.9685   0.9697   1.0079   1.0322
     1.0610   1.0775   1.1043   1.1203   1.1836   1.1989   1.2356   1.2506
     1.2778   1.2922   1.3293   1.3453   1.4084   1.4116   1.4250   1.4447
     1.4831   1.4845   1.5427   1.5471   1.5668   1.5830   1.6200   1.6330
     1.6821   1.7011   1.7283   1.7589   1.8182   1.8254   1.8516   1.8599
     1.8931   1.9124   1.9734   1.9960

     highest occupied level (ev):     2.2561

!    total energy              =  -16545.24209493 Ry
     Harris-Foulkes estimate   =  -16545.24209496 Ry
     estimated scf accuracy    <       0.00000005 Ry

     total all-electron energy =   -677464.508964 Ry

     The total energy is the sum of the following terms:

     one-electron contribution =    -823.84760237 Ry
     hartree contribution      =     604.18440715 Ry
     xc contribution           =    -765.78999775 Ry
     ewald contribution        =   -1188.98815612 Ry
     DFT-D3 Dispersion         =      -0.65464498 Ry
     one-center paw contrib.   =  -14370.14610086 Ry

     convergence has been achieved in   6 iterations

     Forces acting on atoms (cartesian axes, Ry/au):

     atom    1 type  1   force =    -0.00017775    0.00016092    0.00083921
     atom    2 type  1   force =    -0.00058176   -0.00015568    0.00073701
     atom    3 type  1   force =    -0.00034663    0.00048107    0.00017894
     atom    4 type  1   force =    -0.00010782    0.00056201   -0.00035417
     atom    5 type  1   force =     0.00011752    0.00083055   -0.00027325
     atom    6 type  1   force =    -0.00034902    0.00043061    0.00040800
     atom    7 type  1   force =    -0.00050791    0.00020888    0.00038633
     atom    8 type  1   force =    -0.00017696    0.00018632    0.00046829
     atom    9 type  2   force =     0.00041596   -0.00059011    0.00011574
     atom   10 type  2   force =     0.00070607    0.00017987    0.00113838
     atom   11 type  2   force =     0.00040083   -0.00063366   -0.00123607
     atom   12 type  2   force =     0.00088057   -0.00075900   -0.00024249
     atom   13 type  2   force =     0.00073432    0.00050260   -0.00072821
     atom   14 type  2   force =     0.00036098   -0.00047744   -0.00103895
     atom   15 type  2   force =     0.00045910    0.00050694    0.00026637
     atom   16 type  2   force =    -0.00066867   -0.00005674   -0.00019833
     atom   17 type  2   force =     0.00011593   -0.00023528   -0.00020778
     atom   18 type  2   force =     0.00037569    0.00020178    0.00014178
     atom   19 type  2   force =    -0.00067504    0.00013681    0.00007573
     atom   20 type  2   force =    -0.00067841   -0.00037630    0.00017163
     atom   21 type  2   force =     0.00004161    0.00031728    0.00024593
     atom   22 type  2   force =    -0.00067576   -0.00041688    0.00008950
     atom   23 type  2   force =    -0.00064191   -0.00026411   -0.00030438
     atom   24 type  2   force =     0.00058389    0.00034765    0.00033796
     atom   25 type  2   force =    -0.00071072    0.00011306   -0.00025853
     atom   26 type  2   force =     0.00020900   -0.00020999   -0.00010520
     atom   27 type  2   force =     0.00079344   -0.00070434   -0.00011126
     atom   28 type  2   force =     0.00095095   -0.00001559   -0.00087409
     atom   29 type  2   force =     0.00053242   -0.00020663   -0.00057348
     atom   30 type  2   force =     0.00026451   -0.00067364    0.00001829
     atom   31 type  2   force =     0.00074576    0.00003449    0.00105348
     atom   32 type  2   force =     0.00031900   -0.00054606   -0.00067545
     atom   33 type  3   force =    -0.00054980   -0.00092309    0.00001574
     atom   34 type  3   force =     0.00072328   -0.00070539   -0.00062300
     atom   35 type  3   force =    -0.00038679    0.00014880   -0.00066192
     atom   36 type  3   force =    -0.00116376    0.00048245    0.00049061
     atom   37 type  3   force =     0.00010517   -0.00015905    0.00021985
     atom   38 type  3   force =    -0.00047733    0.00027062   -0.00064388
     atom   39 type  3   force =    -0.00010475   -0.00006240   -0.00007997
     atom   40 type  3   force =     0.00094958    0.00058878    0.00009897
     atom   41 type  4   force =     0.00279382    0.00088440    0.00006288
     atom   42 type  4   force =     0.00006684   -0.00099458    0.00000011
     atom   43 type  4   force =    -0.00132177    0.00166462    0.00084110
     atom   44 type  4   force =    -0.00061604    0.00066650    0.00120863
     atom   45 type  4   force =     0.00200610   -0.00104564   -0.00065985
     atom   46 type  4   force =    -0.00031920    0.00047726   -0.00021837
     atom   47 type  4   force =     0.00020493    0.00078442    0.00084302
     atom   48 type  4   force =    -0.00021348    0.00009244    0.00003715
     atom   49 type  4   force =    -0.00002756   -0.00108865    0.00012002
     atom   50 type  4   force =    -0.00025190   -0.00071891    0.00008340
     atom   51 type  5   force =    -0.00119017    0.00063569   -0.00009255
     atom   52 type  5   force =    -0.00078696    0.00078035    0.00002987
     atom   53 type  5   force =     0.00029497   -0.00079675   -0.00003266
     atom   54 type  5   force =    -0.00016331   -0.00082281   -0.00006180
     atom   55 type  5   force =    -0.00003581    0.00009630    0.00010100
     atom   56 type  5   force =     0.00006985    0.00044180    0.00071238
     atom   57 type  5   force =     0.00067890    0.00023269   -0.00038508
     atom   58 type  5   force =    -0.00014199   -0.00091322   -0.00003978
     atom   59 type  5   force =     0.00073919    0.00046149   -0.00021690
     atom   60 type  5   force =    -0.00009387   -0.00028434   -0.00008183
     atom   61 type  5   force =    -0.00006402   -0.00049309   -0.00045329
     atom   62 type  5   force =    -0.00031015    0.00086608    0.00067710
     atom   63 type  5   force =    -0.00054138   -0.00015178   -0.00003104
     atom   64 type  5   force =    -0.00001685    0.00061901   -0.00094303
     atom   65 type  5   force =    -0.00012755   -0.00016141   -0.00001116
     atom   66 type  5   force =    -0.00026029    0.00059949    0.00009112
     atom   67 type  5   force =    -0.00003476   -0.00075587    0.00001823
     atom   68 type  5   force =     0.00013477   -0.00026999    0.00034427
     atom   69 type  5   force =     0.00010922   -0.00022314    0.00012836
     atom   70 type  5   force =    -0.00080935    0.00011070    0.00010209
     atom   71 type  5   force =    -0.00030995    0.00006395    0.00007521
     atom   72 type  5   force =    -0.00029340    0.00022774   -0.00025866
     atom   73 type  5   force =     0.00047342    0.00019158   -0.00004619
     atom   74 type  5   force =     0.00000013   -0.00057785    0.00098298
     atom   75 type  5   force =     0.00018484   -0.00036164   -0.00085378
     atom   76 type  5   force =     0.00035590   -0.00085453    0.00002569
     atom   77 type  5   force =    -0.00003332    0.00016441    0.00057797
     atom   78 type  5   force =    -0.00004264    0.00055672   -0.00053812
     atom   79 type  5   force =    -0.00028517    0.00044891    0.00015800
     atom   80 type  5   force =    -0.00067254    0.00030111    0.00036350
     atom   81 type  5   force =    -0.00102731   -0.00096646   -0.00035385
     atom   82 type  5   force =    -0.00058997    0.00161294   -0.00142235
     atom   83 type  5   force =    -0.00015366   -0.00127820    0.00021949
     atom   84 type  5   force =     0.00020840    0.00124049    0.00093618
     atom   85 type  5   force =     0.00032457   -0.00009053    0.00019401
     atom   86 type  5   force =     0.00014797    0.00047543   -0.00008656
     atom   87 type  5   force =     0.00025406    0.00046089    0.00042505
     atom   88 type  5   force =    -0.00091042   -0.00017844    0.00060509
     atom   89 type  5   force =     0.00140835   -0.00005374   -0.00067752
     atom   90 type  5   force =    -0.00036237    0.00002895   -0.00060333
     atom   91 type  5   force =     0.00015628   -0.00055354    0.00013997
     atom   92 type  5   force =    -0.00067849   -0.00029931   -0.00003427
     atom   93 type  5   force =    -0.00020254    0.00043118    0.00006269
     atom   94 type  5   force =     0.00129539   -0.00020094   -0.00022739
     atom   95 type  5   force =    -0.00062247    0.00014800   -0.00004114
     atom   96 type  5   force =    -0.00020201   -0.00015031   -0.00010343

     Total force =     0.009812     Total SCF correction =     0.000581


     Computing stress (Cartesian axis) and pressure

          total   stress  (Ry/bohr**3)                   (kbar)     P=    0.15
   0.00000085   0.00000971  -0.00000027          0.13      1.43     -0.04
   0.00000971   0.00000363   0.00000033          1.43      0.53      0.05
  -0.00000027   0.00000033  -0.00000133         -0.04      0.05     -0.19


     number of scf cycles    =   2
     number of bfgs steps    =   1

     enthalpy old            =  -16545.2419933109 Ry
     enthalpy new            =  -16545.2420949306 Ry

     CASE: enthalpy_new < enthalpy_old

     new trust radius        =       0.0075873804 bohr
     new conv_thr            =       0.0000000010 Ry

     new unit-cell volume =  13306.36125 a.u.^3 (  1971.79928 Ang^3 )
     density =      4.20386 g/cm^3

CELL_PARAMETERS (angstrom)
  12.342923896   0.000000000   0.000000000
   0.000000000  12.398998527   0.000000000
   0.000000000   0.000000000  12.884217373

ATOMIC_POSITIONS (crystal)
Pb       0.001715754  -0.008639502   0.003205187
Pb       0.002302903  -0.007854830   0.501908364
Pb      -0.001747273   0.494551444   0.000541493
Pb      -0.002008141   0.494427682   0.506042347
Pb       0.497682007  -0.005746648   0.006043594
Pb       0.498239521  -0.005310754   0.500457613
Pb       0.502345877   0.491866841   0.002196444
Pb       0.501773299   0.491613604   0.503494637
I        0.248985965   0.073500020   0.007715649
I       -0.060512684   0.239102161  -0.027076937
I       -0.024866677   0.015802447   0.254144247
I        0.248443949   0.074891355   0.501069061
I       -0.062127532   0.239136255   0.531034499
I        0.005476177  -0.020981738   0.754025256
I        0.249379909   0.440753832   0.019247538
I        0.076177354   0.739766166  -0.011672034
I        0.002600864   0.517936644   0.253237493
I        0.249617241   0.441180378   0.487731548
I        0.075587509   0.740024046   0.517468438
I        0.024235065   0.483958562   0.753065251
I        0.749611058  -0.058781775  -0.012144768
I        0.575676457   0.240411862   0.017514260
I        0.524187356  -0.016064441   0.253314084
I        0.749257620  -0.058860572   0.519446306
I        0.576264969   0.239893833   0.488240208
I        0.502308262   0.017871334   0.753457772
I        0.748580682   0.574696895   0.000727947
I        0.437731589   0.739604085   0.030974858
I        0.505174334   0.478945490   0.253567041
I        0.749064029   0.573715697   0.507631521
I        0.439152540   0.739222291   0.473124108
I        0.475232188   0.516012218   0.753655674
C        0.251400869   0.288648577   0.253482904
C        0.284816629   0.279514015   0.754248930
C        0.240882938   0.791831980   0.252653566
C        0.293540195   0.797180706   0.751845052
C        0.793659254   0.297018783   0.251570265
C        0.740792130   0.291598130   0.752818538
C        0.785067017   0.779698454   0.254463832
C        0.751886619   0.788785879   0.753509806
N        0.151069899   0.253514680   0.253451551
N        0.339144357   0.228613783   0.253206297
N        0.195175042   0.198541051   0.754957741
N        0.259649707   0.672792934   0.251718558
N        0.231560085   0.693903751   0.752242849
N        0.731848353   0.193626469   0.252176097
N        0.759459719   0.172518762   0.752009339
N        0.695715062   0.698330077   0.254695745
N        0.651403814   0.753747262   0.753332615
N        0.839576367   0.728747907   0.753147213
H        0.263552861   0.375672305   0.253829982
H        0.129362620   0.173846632   0.253205475
H        0.090251077   0.309354951   0.253744394
H        0.338603515   0.146428953   0.252813130
H        0.412375253   0.266663417   0.253082774
H        0.198412762   0.150098771   0.689005516
H        0.120152638   0.235421307   0.756282473
H        0.200317020   0.149209899   0.820244298
H        0.276172097   0.330080043   0.685178931
H        0.362020847   0.236125665   0.752512849
H        0.278761896   0.328395604   0.824646692
H        0.303877722   0.650894433   0.186621470
H        0.187368730   0.629436826   0.251269832
H        0.303736426   0.649670393   0.316549555
H        0.195051511   0.813312914   0.183016271
H        0.319656615   0.832295469   0.252649550
H        0.195620767   0.812257255   0.322875926
H        0.182216574   0.688587951   0.686836233
H        0.182083825   0.689092911   0.817510038
H        0.283719739   0.628104574   0.752575528
H        0.343905281   0.799356360   0.682077610
H        0.343671476   0.800039804   0.821780567
H        0.235913326   0.864302612   0.751443573
H        0.682378136   0.188267141   0.186823363
H        0.682389107   0.188942531   0.317553908
H        0.783967894   0.127918127   0.252571582
H        0.843841299   0.299115692   0.181631594
H        0.843949912   0.299917792   0.321420963
H        0.736011514   0.364061178   0.251207367
H        0.803867308   0.150566284   0.687004871
H        0.687178936   0.129219529   0.751548553
H        0.803461853   0.149397855   0.816932716
H        0.694634582   0.312976080   0.683333898
H        0.819603675   0.331990814   0.752276912
H        0.695795849   0.312132807   0.823177541
H        0.699423797   0.649957422   0.188627055
H        0.620622620   0.734970749   0.255771996
H        0.700843821   0.648964896   0.319991443
H        0.776587112   0.830266229   0.185359350
H        0.862427029   0.736590835   0.253163727
H        0.778459122   0.828627922   0.324844779
H        0.764167030   0.875740616   0.754077885
H        0.629634397   0.674137381   0.752871264
H        0.590763146   0.809782991   0.753883429
H        0.839255923   0.646594682   0.752564279
H        0.912841049   0.766781375   0.753401271



     Writing output data file 025FA2_vcrelax11.save/
     NEW-OLD atomic charge density approx. for the potential
     extrapolated charge  408.08256, renormalised to  408.00000

     total cpu time spent up to now is    60058.1 secs

     Self-consistent Calculation

     iteration #  1     ecut=   120.00 Ry     beta= 0.70
     Davidson diagonalization with overlap
     ethr =  1.00E-06,  avg # of iterations =  3.0

     Threshold (ethr) on eigenvalues was too large:
     Diagonalizing with lowered threshold

     Davidson diagonalization with overlap
     ethr =  2.27E-08,  avg # of iterations =  3.0

     total cpu time spent up to now is    66461.3 secs

     total energy              =  -16545.24221537 Ry
     Harris-Foulkes estimate   =  -16545.11986938 Ry
     estimated scf accuracy    <       0.00009050 Ry

     iteration #  2     ecut=   120.00 Ry     beta= 0.70
     Davidson diagonalization with overlap
     ethr =  2.22E-08,  avg # of iterations =  4.0

     total cpu time spent up to now is    70821.6 secs

     total energy              =  -16545.24226211 Ry
     Harris-Foulkes estimate   =  -16545.24229949 Ry
     estimated scf accuracy    <       0.00008471 Ry

     iteration #  3     ecut=   120.00 Ry     beta= 0.70
     Davidson diagonalization with overlap
     ethr =  2.08E-08,  avg # of iterations =  3.0

     total cpu time spent up to now is    74018.5 secs

     total energy              =  -16545.24227677 Ry
     Harris-Foulkes estimate   =  -16545.24227581 Ry
     estimated scf accuracy    <       0.00000820 Ry

     iteration #  4     ecut=   120.00 Ry     beta= 0.70
     Davidson diagonalization with overlap
     ethr =  2.01E-09,  avg # of iterations =  4.0

     total cpu time spent up to now is    77060.5 secs

     total energy              =  -16545.24227817 Ry
     Harris-Foulkes estimate   =  -16545.24227820 Ry
     estimated scf accuracy    <       0.00000492 Ry

     iteration #  5     ecut=   120.00 Ry     beta= 0.70
     Davidson diagonalization with overlap
