
     Program PWSCF v.6.4 starts on  1Aug2020 at  9:21:33 

     This program is part of the open-source Quantum ESPRESSO suite
     for quantum simulation of materials; please cite
         "P. Giannozzi et al., J. Phys.:Condens. Matter 21 395502 (2009);
         "P. Giannozzi et al., J. Phys.:Condens. Matter 29 465901 (2017);
          URL http://www.quantum-espresso.org", 
     in publications or presentations arising from this work. More details at
     http://www.quantum-espresso.org/quote

     Parallel version (MPI), running on    32 processors

     MPI processes distributed on     1 nodes
     R & G space division:  proc/nbgrp/npool/nimage =      32
     Waiting for input...
     Reading input from standard input

     Current dimensions of program PWSCF are:
     Max number of different atomic species (ntypx) = 10
     Max number of k-points (npk) =  40000
     Max angular momentum in pseudopotentials (lmaxx) =  3
               file Pb.pbe-dn-kjpaw_psl.1.0.0.UPF: wavefunction(s)  6S 6P 5D renormalized
               file I.pbe-n-kjpaw_psl.1.0.0.UPF: wavefunction(s)  5S renormalized
               file C.pbe-n-kjpaw_psl.1.0.0.UPF: wavefunction(s)  2S 2P renormalized
               file N.pbe-n-kjpaw_psl.1.0.0.UPF: wavefunction(s)  2S renormalized
               file H.pbe-kjpaw_psl.1.0.0.UPF: wavefunction(s)  1S renormalized

     --------------------------------------------
     Parameters for DFT-D3 Dispersion Correction:
     --------------------------------------------
       Reference C6 values for interpolation: 

         atom   Coordination number   C6
         H          0.912             6.05
         H          0.000            15.18
         C          0.000            98.23
         C          0.987            86.49
         C          1.998            58.72
         C          2.999            51.56
         C          3.984            36.41
         N          0.000            50.54
         N          0.994            44.25
         N          2.014            39.35
         N          2.990            31.16
         I          0.000           703.93
         I          0.997           717.00
         Pb         0.000          1477.63
         Pb         0.938          1266.00
         Pb         1.936          1088.91
         Pb         2.908          1048.37
         Pb         3.910           910.57

       Values used:

         atom   Coordination number  R0_AB[au]  C6      C8
         Pb         4.814            4.041    910.57 144158.38
         Pb         4.819            4.041    910.57 144158.37
         Pb         4.795            4.041    910.57 144158.43
         Pb         4.798            4.041    910.57 144158.42
         Pb         4.805            4.041    910.57 144158.40
         Pb         4.790            4.041    910.57 144158.44
         Pb         4.819            4.041    910.57 144158.37
         Pb         4.819            4.041    910.57 144158.37
         I          1.917            3.532    717.00  65855.99
         I          1.937            3.532    717.00  65855.99
         I          1.889            3.532    717.00  65855.99
         I          1.913            3.532    717.00  65855.99
         I          1.941            3.532    717.00  65855.99
         I          2.020            3.532    717.00  65856.00
         I          2.042            3.532    717.00  65856.00
         I          1.970            3.532    717.00  65856.00
         I          1.909            3.532    717.00  65855.99
         I          2.044            3.532    717.00  65856.00
         I          1.963            3.532    717.00  65856.00
         I          2.001            3.532    717.00  65856.00
         I          2.043            3.532    717.00  65856.00
         I          1.965            3.532    717.00  65856.00
         I          2.002            3.532    717.00  65856.00
         I          2.043            3.532    717.00  65856.00
         I          1.969            3.532    717.00  65856.00
         I          1.908            3.532    717.00  65855.99
         I          1.914            3.532    717.00  65855.99
         I          1.943            3.532    717.00  65855.99
         I          2.022            3.532    717.00  65856.00
         I          1.917            3.532    717.00  65855.99
         I          1.938            3.532    717.00  65855.99
         I          1.888            3.532    717.00  65855.99
         C          3.105            2.750     50.85   1470.79
         C          4.041            2.750     36.59   1058.15
         C          4.039            2.750     36.59   1058.21
         C          4.040            2.750     36.59   1058.20
         C          4.040            2.750     36.59   1058.20
         C          4.039            2.750     36.59   1058.21
         C          4.041            2.750     36.59   1058.13
         C          3.105            2.750     50.86   1470.82
         N          3.098            2.478     31.24    689.08
         N          3.100            2.478     31.23    689.06
         N          4.054            2.478     31.16    687.49
         N          4.051            2.478     31.16    687.49
         N          4.057            2.478     31.16    687.49
         N          4.057            2.478     31.16    687.49
         N          4.051            2.478     31.16    687.49
         N          4.054            2.478     31.16    687.49
         N          3.098            2.478     31.24    689.08
         N          3.100            2.478     31.23    689.06
         H          1.028            2.062      6.16     74.44
         H          1.048            2.062      6.14     74.27
         H          1.041            2.062      6.15     74.32
         H          1.024            2.062      6.16     74.48
         H          1.032            2.062      6.15     74.40
         H          1.057            2.062      6.14     74.20
         H          1.017            2.062      6.17     74.54
         H          1.061            2.062      6.14     74.17
         H          1.021            2.062      6.16     74.50
         H          1.009            2.062      6.17     74.62
         H          1.022            2.062      6.16     74.50
         H          1.034            2.062      6.15     74.38
         H          1.059            2.062      6.14     74.18
         H          1.034            2.062      6.15     74.39
         H          1.014            2.062      6.17     74.57
         H          1.013            2.062      6.17     74.58
         H          1.014            2.062      6.17     74.57
         H          1.068            2.062      6.13     74.12
         H          1.068            2.062      6.13     74.12
         H          1.043            2.062      6.15     74.31
         H          1.016            2.062      6.17     74.55
         H          1.016            2.062      6.17     74.55
         H          1.010            2.062      6.17     74.61
         H          1.068            2.062      6.13     74.12
         H          1.068            2.062      6.13     74.12
         H          1.043            2.062      6.15     74.31
         H          1.016            2.062      6.17     74.55
         H          1.016            2.062      6.17     74.55
         H          1.010            2.062      6.17     74.61
         H          1.034            2.062      6.15     74.38
         H          1.060            2.062      6.14     74.18
         H          1.034            2.062      6.15     74.38
         H          1.014            2.062      6.17     74.57
         H          1.013            2.062      6.17     74.58
         H          1.014            2.062      6.17     74.57
         H          1.058            2.062      6.14     74.19
         H          1.017            2.062      6.17     74.54
         H          1.061            2.062      6.14     74.17
         H          1.021            2.062      6.16     74.50
         H          1.009            2.062      6.17     74.62
         H          1.022            2.062      6.16     74.50
         H          1.028            2.062      6.16     74.44
         H          1.048            2.062      6.14     74.27
         H          1.041            2.062      6.15     74.32
         H          1.024            2.062      6.16     74.48
         H          1.032            2.062      6.15     74.40

         Molecular C6 ( Ry / a.u.^6 ) =   1214711.67


     Subspace diagonalization in iterative solution of the eigenvalue problem:
     a serial algorithm will be used


     Parallelization info
     --------------------
     sticks:   dense  smooth     PW     G-vecs:    dense   smooth      PW
     Min         657     657    169                74141    74141    9709
     Max         658     658    170                74144    74144    9714
     Sum       21031   21031   5417              2372551  2372551  310745



     bravais-lattice index     =            0
     lattice parameter (alat)  =      23.3952  a.u.
     unit-cell volume          =   13359.3075 (a.u.)^3
     number of atoms/cell      =           96
     number of atomic types    =            5
     number of electrons       =       408.00
     number of Kohn-Sham states=          204
     kinetic-energy cutoff     =     120.0000  Ry
     charge density cutoff     =     480.0000  Ry
     convergence threshold     =      1.0E-07
     mixing beta               =       0.7000
     number of iterations used =            8  plain     mixing
     Exchange-correlation      = SLA PW PBX PBC ( 1  4  3  4 0 0)
     nstep                     =          200


     celldm(1)=  23.395153  celldm(2)=   0.000000  celldm(3)=   0.000000
     celldm(4)=   0.000000  celldm(5)=   0.000000  celldm(6)=   0.000000

     crystal axes: (cart. coord. in units of alat)
               a(1) = (   1.000000   0.000000   0.000000 )  
               a(2) = (   0.000000   1.005478   0.000000 )  
               a(3) = (   0.000000   0.000000   1.037609 )  

     reciprocal axes: (cart. coord. in units 2 pi/alat)
               b(1) = (  1.000000  0.000000  0.000000 )  
               b(2) = (  0.000000  0.994552  0.000000 )  
               b(3) = (  0.000000  0.000000  0.963754 )  


     PseudoPot. # 1 for Pb read from file:
     ../../../../Pseudopotential/Pb.pbe-dn-kjpaw_psl.1.0.0.UPF
     MD5 check sum: 684fc8fbce61a260853528575e4d9ab7
     Pseudo is Projector augmented-wave + core cor, Zval = 14.0
     Generated using "atomic" code by A. Dal Corso v.6.3
     Shape of augmentation charge: PSQ
     Using radial grid of 1281 points,  6 beta functions with: 
                l(1) =   0
                l(2) =   0
                l(3) =   1
                l(4) =   1
                l(5) =   2
                l(6) =   2
     Q(r) pseudized with 0 coefficients 


     PseudoPot. # 2 for I  read from file:
     ../../../../Pseudopotential/I.pbe-n-kjpaw_psl.1.0.0.UPF
     MD5 check sum: cd3d296c3308a581e1559a0c8a554cb5
     Pseudo is Projector augmented-wave + core cor, Zval =  7.0
     Generated using "atomic" code by A. Dal Corso v.6.3
     Shape of augmentation charge: PSQ
     Using radial grid of 1247 points,  6 beta functions with: 
                l(1) =   0
                l(2) =   0
                l(3) =   1
                l(4) =   1
                l(5) =   2
                l(6) =   2
     Q(r) pseudized with 0 coefficients 


     PseudoPot. # 3 for C  read from file:
     ../../../../Pseudopotential/C.pbe-n-kjpaw_psl.1.0.0.UPF
     MD5 check sum: 5f16ad9a65e90284d1d834d4ab3b0f7d
     Pseudo is Projector augmented-wave + core cor, Zval =  4.0
     Generated using "atomic" code by A. Dal Corso v.6.3
     Shape of augmentation charge: PSQ
     Using radial grid of 1073 points,  4 beta functions with: 
                l(1) =   0
                l(2) =   0
                l(3) =   1
                l(4) =   1
     Q(r) pseudized with 0 coefficients 


     PseudoPot. # 4 for N  read from file:
     ../../../../Pseudopotential/N.pbe-n-kjpaw_psl.1.0.0.UPF
     MD5 check sum: 14c48229446f9f2d411169a3abcbc3fa
     Pseudo is Projector augmented-wave + core cor, Zval =  5.0
     Generated using "atomic" code by A. Dal Corso v.6.3
     Shape of augmentation charge: PSQ
     Using radial grid of 1085 points,  4 beta functions with: 
                l(1) =   0
                l(2) =   0
                l(3) =   1
                l(4) =   1
     Q(r) pseudized with 0 coefficients 


     PseudoPot. # 5 for H  read from file:
     ../../../../Pseudopotential/H.pbe-kjpaw_psl.1.0.0.UPF
     MD5 check sum: d81a744832360e4a8af0b0b5b123bc2a
     Pseudo is Projector augmented-wave, Zval =  1.0
     Generated using "atomic" code by A. Dal Corso v.6.3MaX
     Shape of augmentation charge: PSQ
     Using radial grid of  929 points,  2 beta functions with: 
                l(1) =   0
                l(2) =   0
     Q(r) pseudized with 0 coefficients 


     atomic species   valence    mass     pseudopotential
        Pb            14.00   207.97600     Pb( 1.00)
        I              7.00   126.90400     I ( 1.00)
        C              4.00    12.00000     C ( 1.00)
        N              5.00    14.00300     N ( 1.00)
        H              1.00     1.00700     H ( 1.00)

     No symmetry found



   Cartesian axes

     site n.     atom                  positions (alat units)
         1           Pb  tau(   1) = (   0.0016285  -0.0074176   0.0029527  )
         2           Pb  tau(   2) = (   0.0020200  -0.0070733   0.5212271  )
         3           Pb  tau(   3) = (  -0.0013549   0.4986912   0.0007586  )
         4           Pb  tau(   4) = (  -0.0014235   0.4985248   0.5243966  )
         5           Pb  tau(   5) = (   0.4985424  -0.0043937   0.0055927  )
         6           Pb  tau(   6) = (   0.4986413  -0.0040453   0.5194788  )
         7           Pb  tau(   7) = (   0.5020547   0.4954428   0.0025965  )
         8           Pb  tau(   8) = (   0.5015984   0.4954483   0.5218556  )
         9           I   tau(   9) = (   0.2496873   0.0702881   0.0065314  )
        10           I   tau(  10) = (  -0.0574676   0.2411942  -0.0258537  )
        11           I   tau(  11) = (  -0.0226390   0.0139949   0.2636617  )
        12           I   tau(  12) = (   0.2489953   0.0710945   0.5203517  )
        13           I   tau(  13) = (  -0.0580564   0.2412264   0.5487746  )
        14           I   tau(  14) = (   0.0061886  -0.0203014   0.7823907  )
        15           I   tau(  15) = (   0.2498896   0.4472873   0.0196644  )
        16           I   tau(  16) = (   0.0727887   0.7442709  -0.0142311  )
        17           I   tau(  17) = (   0.0050587   0.5198051   0.2626038  )
        18           I   tau(  18) = (   0.2502380   0.4467649   0.5063338  )
        19           I   tau(  19) = (   0.0728000   0.7444194   0.5384561  )
        20           I   tau(  20) = (   0.0225026   0.4841673   0.7813786  )
        21           I   tau(  21) = (   0.7501997  -0.0562015  -0.0124237  )
        22           I   tau(  22) = (   0.5727394   0.2420396   0.0198512  )
        23           I   tau(  23) = (   0.5223952  -0.0186437   0.2626351  )
        24           I   tau(  24) = (   0.7497365  -0.0552805   0.5383739  )
        25           I   tau(  25) = (   0.5727193   0.2416730   0.5045109  )
        26           I   tau(  26) = (   0.5050728   0.0170432   0.7817133  )
        27           I   tau(  27) = (   0.7491530   0.5736537   0.0013829  )
        28           I   tau(  28) = (   0.4420918   0.7444351   0.0303377  )
        29           I   tau(  29) = (   0.5061414   0.4822138   0.2630700  )
        30           I   tau(  30) = (   0.7495375   0.5730347   0.5254453  )
        31           I   tau(  31) = (   0.4425935   0.7438864   0.4931330  )
        32           I   tau(  32) = (   0.4772885   0.5169042   0.7819578  )
        33           C   tau(  33) = (   0.2523199   0.2885477   0.2630202  )
        34           C   tau(  34) = (   0.2873092   0.2791083   0.7822681  )
        35           C   tau(  35) = (   0.2375754   0.7980131   0.2622874  )
        36           C   tau(  36) = (   0.2919774   0.8012369   0.7803060  )
        37           C   tau(  37) = (   0.7920007   0.2983958   0.2613879  )
        38           C   tau(  38) = (   0.7375188   0.2950859   0.7811624  )
        39           C   tau(  39) = (   0.7873444   0.7818756   0.2636829  )
        40           C   tau(  40) = (   0.7525355   0.7911969   0.7817775  )
        41           N   tau(  41) = (   0.1520083   0.2539551   0.2628906  )
        42           N   tau(  42) = (   0.3393835   0.2278952   0.2628217  )
        43           N   tau(  43) = (   0.1942278   0.2021153   0.7832066  )
        44           N   tau(  44) = (   0.2590644   0.6791105   0.2615971  )
        45           N   tau(  45) = (   0.2329896   0.6958571   0.7807691  )
        46           N   tau(  46) = (   0.7330431   0.1930071   0.2620188  )
        47           N   tau(  47) = (   0.7589101   0.1761983   0.7805273  )
        48           N   tau(  48) = (   0.6946191   0.7045479   0.2641445  )
        49           N   tau(  49) = (   0.6521143   0.7566098   0.7816609  )
        50           N   tau(  50) = (   0.8395362   0.7305842   0.7814880  )
        51           H   tau(  51) = (   0.2646332   0.3756673   0.2633782  )
        52           H   tau(  52) = (   0.1298591   0.1742960   0.2627299  )
        53           H   tau(  53) = (   0.0917934   0.3103173   0.2631880  )
        54           H   tau(  54) = (   0.3378914   0.1455733   0.2625186  )
        55           H   tau(  55) = (   0.4129271   0.2649512   0.2628733  )
        56           H   tau(  56) = (   0.1954358   0.1532267   0.7148036  )
        57           H   tau(  57) = (   0.1211742   0.2424993   0.7843690  )
        58           H   tau(  58) = (   0.1972069   0.1525544   0.8511876  )
        59           H   tau(  59) = (   0.2811220   0.3298665   0.7101560  )
        60           H   tau(  60) = (   0.3622859   0.2322056   0.7807351  )
        61           H   tau(  61) = (   0.2832945   0.3285927   0.8553566  )
        62           H   tau(  62) = (   0.3029102   0.6579518   0.1933957  )
        63           H   tau(  63) = (   0.1877550   0.6342786   0.2619520  )
        64           H   tau(  64) = (   0.3041223   0.6573021   0.3288110  )
        65           H   tau(  65) = (   0.1913940   0.8182086   0.1896740  )
        66           H   tau(  66) = (   0.3152266   0.8403421   0.2623628  )
        67           H   tau(  67) = (   0.1917571   0.8172905   0.3353436  )
        68           H   tau(  68) = (   0.1835728   0.6894903   0.7128806  )
        69           H   tau(  69) = (   0.1838979   0.6898691   0.8488821  )
        70           H   tau(  70) = (   0.2866561   0.6312762   0.7808605  )
        71           H   tau(  71) = (   0.3421243   0.8047724   0.7075891  )
        72           H   tau(  72) = (   0.3419030   0.8055332   0.8531668  )
        73           H   tau(  73) = (   0.2326189   0.8668505   0.7798568  )
        74           H   tau(  74) = (   0.6835208   0.1865258   0.1942437  )
        75           H   tau(  75) = (   0.6839823   0.1870458   0.3301679  )
        76           H   tau(  76) = (   0.7866641   0.1284257   0.2621357  )
        77           H   tau(  77) = (   0.8421074   0.3018856   0.1886423  )
        78           H   tau(  78) = (   0.8420640   0.3028110   0.3341287  )
        79           H   tau(  79) = (   0.7326401   0.3639929   0.2609545  )
        80           H   tau(  80) = (   0.8025960   0.1548363   0.7122808  )
        81           H   tau(  81) = (   0.6876297   0.1313520   0.7811445  )
        82           H   tau(  82) = (   0.8041518   0.1545340   0.8476335  )
        83           H   tau(  83) = (   0.6912111   0.3151103   0.7086135  )
        84           H   tau(  84) = (   0.8151786   0.3374211   0.7811081  )
        85           H   tau(  85) = (   0.6919289   0.3145711   0.8542810  )
        86           H   tau(  86) = (   0.6962043   0.6557307   0.1956652  )
        87           H   tau(  87) = (   0.6214625   0.7446071   0.2651067  )
        88           H   tau(  88) = (   0.6974052   0.6550402   0.3321396  )
        89           H   tau(  89) = (   0.7814081   0.8325629   0.1915501  )
        90           H   tau(  90) = (   0.8624598   0.7353143   0.2623628  )
        91           H   tau(  91) = (   0.7829261   0.8312990   0.3367896  )
        92           H   tau(  92) = (   0.7648660   0.8782981   0.7821900  )
        93           H   tau(  93) = (   0.6299150   0.6769805   0.7813685  )
        94           H   tau(  94) = (   0.5921030   0.8131874   0.7821509  )
        95           H   tau(  95) = (   0.8381410   0.6482682   0.7810926  )
        96           H   tau(  96) = (   0.9131338   0.7676227   0.7817905  )

     number of k points=    32
                       cart. coord. in units 2pi/alat
        k(    1) = (   0.1250000   0.1243190   0.1204692), wk =   0.0625000
        k(    2) = (   0.1250000   0.1243190   0.3614077), wk =   0.0625000
        k(    3) = (   0.1250000   0.3729571   0.1204692), wk =   0.0625000
        k(    4) = (   0.1250000   0.3729571   0.3614077), wk =   0.0625000
        k(    5) = (   0.3750000   0.1243190   0.1204692), wk =   0.0625000
        k(    6) = (   0.3750000   0.1243190   0.3614077), wk =   0.0625000
        k(    7) = (   0.3750000   0.3729571   0.1204692), wk =   0.0625000
        k(    8) = (   0.3750000   0.3729571   0.3614077), wk =   0.0625000
        k(    9) = (  -0.1250000  -0.1243190   0.1204692), wk =   0.0625000
        k(   10) = (  -0.1250000   0.1243190  -0.1204692), wk =   0.0625000
        k(   11) = (   0.1250000  -0.1243190  -0.1204692), wk =   0.0625000
        k(   12) = (  -0.1250000  -0.1243190   0.3614077), wk =   0.0625000
        k(   13) = (  -0.1250000   0.1243190  -0.3614077), wk =   0.0625000
        k(   14) = (   0.1250000  -0.1243190  -0.3614077), wk =   0.0625000
        k(   15) = (  -0.1250000  -0.3729571   0.1204692), wk =   0.0625000
        k(   16) = (  -0.1250000   0.3729571  -0.1204692), wk =   0.0625000
        k(   17) = (   0.1250000  -0.3729571  -0.1204692), wk =   0.0625000
        k(   18) = (  -0.1250000  -0.3729571   0.3614077), wk =   0.0625000
        k(   19) = (  -0.1250000   0.3729571  -0.3614077), wk =   0.0625000
        k(   20) = (   0.1250000  -0.3729571  -0.3614077), wk =   0.0625000
        k(   21) = (  -0.3750000  -0.1243190   0.1204692), wk =   0.0625000
        k(   22) = (  -0.3750000   0.1243190  -0.1204692), wk =   0.0625000
        k(   23) = (   0.3750000  -0.1243190  -0.1204692), wk =   0.0625000
        k(   24) = (  -0.3750000  -0.1243190   0.3614077), wk =   0.0625000
        k(   25) = (  -0.3750000   0.1243190  -0.3614077), wk =   0.0625000
        k(   26) = (   0.3750000  -0.1243190  -0.3614077), wk =   0.0625000
        k(   27) = (  -0.3750000  -0.3729571   0.1204692), wk =   0.0625000
        k(   28) = (  -0.3750000   0.3729571  -0.1204692), wk =   0.0625000
        k(   29) = (   0.3750000  -0.3729571  -0.1204692), wk =   0.0625000
        k(   30) = (  -0.3750000  -0.3729571   0.3614077), wk =   0.0625000
        k(   31) = (  -0.3750000   0.3729571  -0.3614077), wk =   0.0625000
        k(   32) = (   0.3750000  -0.3729571  -0.3614077), wk =   0.0625000

     Dense  grid:  2372551 G-vectors     FFT dimensions: ( 180, 180, 180)

     Estimated max dynamical RAM per process >       1.68 GB

     Estimated total dynamical RAM >      53.76 GB

     Initial potential from superposition of free atoms

     starting charge  407.97850, renormalised to  408.00000
     Starting wfcs are  286 randomized atomic wfcs
     Checking if some PAW data can be deallocated... 

     total cpu time spent up to now is      982.2 secs

     Self-consistent Calculation

     iteration #  1     ecut=   120.00 Ry     beta= 0.70
     Davidson diagonalization with overlap
     ethr =  1.00E-02,  avg # of iterations =  2.0

     total cpu time spent up to now is     2893.1 secs

     total energy              =  -16543.28080345 Ry
     Harris-Foulkes estimate   =  -16546.92233484 Ry
     estimated scf accuracy    <       5.99975691 Ry

     iteration #  2     ecut=   120.00 Ry     beta= 0.70
     Davidson diagonalization with overlap
     ethr =  1.47E-03,  avg # of iterations =  3.0

     total cpu time spent up to now is     5694.8 secs

     total energy              =  -16544.58246773 Ry
     Harris-Foulkes estimate   =  -16546.06558753 Ry
     estimated scf accuracy    <       2.66959976 Ry

     iteration #  3     ecut=   120.00 Ry     beta= 0.70
     Davidson diagonalization with overlap
     ethr =  6.54E-04,  avg # of iterations =  4.0

     total cpu time spent up to now is     7888.6 secs

     total energy              =  -16545.20555249 Ry
     Harris-Foulkes estimate   =  -16545.25879506 Ry
     estimated scf accuracy    <       0.12038214 Ry

     iteration #  4     ecut=   120.00 Ry     beta= 0.70
     Davidson diagonalization with overlap
     ethr =  2.95E-05,  avg # of iterations =  4.0

     total cpu time spent up to now is    10448.5 secs

     total energy              =  -16545.23680195 Ry
     Harris-Foulkes estimate   =  -16545.25296818 Ry
     estimated scf accuracy    <       0.03077420 Ry

     iteration #  5     ecut=   120.00 Ry     beta= 0.70
     Davidson diagonalization with overlap
     ethr =  7.54E-06,  avg # of iterations =  4.0

     total cpu time spent up to now is    12495.3 secs

     total energy              =  -16545.24311933 Ry
     Harris-Foulkes estimate   =  -16545.24444162 Ry
     estimated scf accuracy    <       0.00253856 Ry

     iteration #  6     ecut=   120.00 Ry     beta= 0.70
     Davidson diagonalization with overlap
     ethr =  6.22E-07,  avg # of iterations =  4.0

     total cpu time spent up to now is    14871.2 secs

     total energy              =  -16545.24384381 Ry
     Harris-Foulkes estimate   =  -16545.24410211 Ry
     estimated scf accuracy    <       0.00058054 Ry

     iteration #  7     ecut=   120.00 Ry     beta= 0.70
     Davidson diagonalization with overlap
     ethr =  1.42E-07,  avg # of iterations =  3.0

     total cpu time spent up to now is    17095.4 secs

     total energy              =  -16545.24396824 Ry
     Harris-Foulkes estimate   =  -16545.24398737 Ry
     estimated scf accuracy    <       0.00004445 Ry

     iteration #  8     ecut=   120.00 Ry     beta= 0.70
     Davidson diagonalization with overlap
     ethr =  1.09E-08,  avg # of iterations =  4.0

     total cpu time spent up to now is    19426.9 secs

     total energy              =  -16545.24398100 Ry
     Harris-Foulkes estimate   =  -16545.24398882 Ry
     estimated scf accuracy    <       0.00001761 Ry

     iteration #  9     ecut=   120.00 Ry     beta= 0.70
     Davidson diagonalization with overlap
     ethr =  4.32E-09,  avg # of iterations =  3.2

     total cpu time spent up to now is    21527.1 secs

     total energy              =  -16545.24398471 Ry
     Harris-Foulkes estimate   =  -16545.24398524 Ry
     estimated scf accuracy    <       0.00000109 Ry

     iteration # 10     ecut=   120.00 Ry     beta= 0.70
     Davidson diagonalization with overlap
     ethr =  2.68E-10,  avg # of iterations =  4.0

     total cpu time spent up to now is    23782.3 secs

     total energy              =  -16545.24398501 Ry
     Harris-Foulkes estimate   =  -16545.24398513 Ry
     estimated scf accuracy    <       0.00000025 Ry

     iteration # 11     ecut=   120.00 Ry     beta= 0.70
     Davidson diagonalization with overlap
     ethr =  6.18E-11,  avg # of iterations =  4.0

     total cpu time spent up to now is    25847.2 secs

     End of self-consistent calculation

          k = 0.1250 0.1243 0.1205 (296502 PWs)   bands (ev):

   -17.7353 -17.7336 -17.3612 -17.3607 -17.3583 -17.3519 -17.2761 -17.2731
   -15.5922 -15.5915 -14.0980 -14.0971 -14.0891 -14.0875 -14.0844 -14.0825
   -14.0778 -14.0762 -14.0755 -14.0735 -14.0715 -14.0694 -14.0588 -14.0574
   -14.0573 -14.0570 -14.0560 -14.0557 -14.0545 -14.0524 -14.0513 -14.0511
   -14.0499 -14.0475 -14.0413 -14.0399 -14.0389 -14.0387 -14.0375 -14.0368
   -14.0367 -14.0363 -14.0358 -14.0351 -14.0349 -14.0324 -14.0217 -14.0201
   -14.0190 -14.0189 -10.3124 -10.3094 -10.2953 -10.2917 -10.2847 -10.2786
    -9.5929  -9.5859  -9.4860  -9.3768  -9.3417  -9.2957  -9.2584  -9.2003
    -9.1836  -9.1671  -9.1330  -9.0885  -9.0540  -8.9984  -8.9926  -8.9757
    -8.9749  -8.9606  -8.9556  -8.9427  -8.9069  -8.8596  -8.8293  -8.8001
    -8.7834  -8.7606  -7.5803  -7.5767  -6.9990  -6.9976  -6.8106  -6.8059
    -6.8041  -6.8017  -6.7983  -6.7920  -6.7721  -6.7648  -6.7636  -6.7600
    -6.6889  -6.6866  -5.6936  -5.2853  -5.2666  -5.2526  -5.2449  -5.2345
    -4.8651  -4.8510  -4.8220  -4.6558  -4.6463  -4.6374  -4.6328  -4.6240
    -4.6169  -4.4165  -3.6940  -3.6918  -3.1556  -3.1534  -2.6615  -2.6429
    -2.6414  -2.6309  -2.6134  -2.6124  -2.6050  -2.6011  -2.5747  -2.5725
    -2.5661  -2.5606  -0.7375  -0.6969  -0.6443  -0.6348  -0.6117  -0.5423
    -0.5405  -0.4796  -0.4367  -0.3812  -0.3748  -0.2973   0.0235   0.1295
     0.3832   0.4423   0.4701   0.4730   0.5242   0.5447   0.5621   0.6453
     0.6799   0.6808   0.7382   0.7589   0.8108   0.8870   0.8890   0.9074
     0.9443   0.9855   1.0212   1.0525   1.0663   1.1027   1.1116   1.1340
     1.1470   1.1658   1.1784   1.2011   1.2033   1.2272   1.2435   1.2586
     1.2971   1.3110   1.3219   1.3821   1.3834   1.4474   1.4723   1.4737
     1.4809   1.4861   1.5420   1.5494   1.5523   1.5644   1.6000   1.6092
     1.6677   1.6987   1.7346   1.7866   1.8021   1.8335   1.8453   1.8847
     1.9075   1.9785   2.0620   2.2344

          k = 0.1250 0.1243 0.3614 (296563 PWs)   bands (ev):

   -17.7353 -17.7336 -17.3612 -17.3607 -17.3583 -17.3519 -17.2761 -17.2731
   -15.5922 -15.5915 -14.0955 -14.0950 -14.0915 -14.0897 -14.0823 -14.0801
   -14.0792 -14.0762 -14.0761 -14.0756 -14.0714 -14.0702 -14.0588 -14.0574
   -14.0573 -14.0570 -14.0560 -14.0557 -14.0545 -14.0524 -14.0513 -14.0511
   -14.0499 -14.0475 -14.0413 -14.0399 -14.0389 -14.0387 -14.0375 -14.0368
   -14.0367 -14.0363 -14.0358 -14.0352 -14.0349 -14.0324 -14.0217 -14.0201
   -14.0190 -14.0189 -10.3116 -10.3099 -10.2952 -10.2917 -10.2847 -10.2788
    -9.5856  -9.5834  -9.4624  -9.4066  -9.3427  -9.2855  -9.2839  -9.2517
    -9.2088  -9.1989  -9.0542  -9.0384  -9.0194  -9.0098  -8.9880  -8.9802
    -8.9791  -8.9696  -8.9343  -8.9323  -8.8878  -8.8693  -8.8594  -8.8297
    -8.7765  -8.7674  -7.5798  -7.5777  -6.9990  -6.9977  -6.8094  -6.8068
    -6.8025  -6.7993  -6.7968  -6.7920  -6.7716  -6.7656  -6.7628  -6.7614
    -6.6906  -6.6888  -5.5771  -5.3990  -5.2536  -5.2506  -5.1721  -5.1284
    -5.0010  -4.9577  -4.7587  -4.6670  -4.6486  -4.6420  -4.6301  -4.6229
    -4.6124  -4.5377  -3.6943  -3.6921  -3.1552  -3.1539  -2.6491  -2.6433
    -2.6395  -2.6284  -2.6229  -2.6176  -2.6017  -2.5986  -2.5747  -2.5728
    -2.5656  -2.5619  -0.6130  -0.5827  -0.5790  -0.5299  -0.4556  -0.4106
    -0.4033  -0.3944  -0.2733  -0.2613  -0.2298  -0.1469   0.0321   0.1037
     0.2782   0.3100   0.3861   0.4150   0.4575   0.4927   0.5122   0.5533
     0.5679   0.5771   0.5964   0.6315   0.6527   0.6812   0.8245   0.8680
     0.8760   0.9133   0.9467   0.9799   1.0340   1.0450   1.0849   1.0922
     1.1195   1.1329   1.1530   1.1684   1.2537   1.2650   1.2951   1.3110
     1.3307   1.3474   1.3699   1.3727   1.4227   1.4379   1.4640   1.4849
     1.5104   1.5203   1.5225   1.5273   1.5694   1.5709   1.6003   1.6270
     1.6583   1.6991   1.7191   1.7442   1.7548   1.8020   1.8039   1.8253
     1.8535   1.8641   2.0705   2.1076

          k = 0.1250 0.3730 0.1205 (296601 PWs)   bands (ev):

   -17.7353 -17.7336 -17.3612 -17.3607 -17.3583 -17.3519 -17.2761 -17.2732
   -15.5922 -15.5915 -14.0978 -14.0970 -14.0888 -14.0873 -14.0839 -14.0828
   -14.0768 -14.0758 -14.0746 -14.0734 -14.0720 -14.0706 -14.0587 -14.0576
   -14.0574 -14.0569 -14.0564 -14.0560 -14.0548 -14.0524 -14.0514 -14.0512
   -14.0500 -14.0476 -14.0413 -14.0400 -14.0389 -14.0387 -14.0375 -14.0368
   -14.0367 -14.0364 -14.0358 -14.0351 -14.0349 -14.0324 -14.0217 -14.0201
   -14.0190 -14.0190 -10.3105 -10.3084 -10.2951 -10.2912 -10.2865 -10.2805
    -9.5930  -9.5890  -9.4459  -9.3887  -9.3492  -9.2877  -9.2703  -9.2172
    -9.1972  -9.1885  -9.1314  -9.1249  -9.0411  -9.0219  -8.9683  -8.9640
    -8.9597  -8.9486  -8.9391  -8.9247  -8.8759  -8.8548  -8.8525  -8.8093
    -8.7879  -8.7734  -7.5792  -7.5773  -6.9989  -6.9976  -6.8087  -6.8060
    -6.8041  -6.8018  -6.7970  -6.7939  -6.7721  -6.7654  -6.7639  -6.7610
    -6.6890  -6.6869  -5.5812  -5.4120  -5.2543  -5.2513  -5.1536  -5.1352
    -4.9912  -4.9760  -4.7398  -4.6680  -4.6459  -4.6396  -4.6305  -4.6262
    -4.6069  -4.5235  -3.6947  -3.6925  -3.1552  -3.1539  -2.6537  -2.6460
    -2.6317  -2.6246  -2.6152  -2.6131  -2.6084  -2.6064  -2.5758  -2.5738
    -2.5667  -2.5634  -0.7112  -0.6757  -0.6464  -0.6020  -0.5691  -0.5282
    -0.4973  -0.4260  -0.2839  -0.1205  -0.0762   0.0012   0.1055   0.1087
     0.1762   0.3560   0.3908   0.4561   0.4784   0.4930   0.5466   0.5623
     0.5913   0.6105   0.6428   0.6996   0.7463   0.8011   0.8364   0.8820
     0.8912   0.9206   1.0118   1.0158   1.0549   1.0591   1.0901   1.0984
     1.1274   1.1306   1.1712   1.1850   1.2050   1.2058   1.2442   1.2528
     1.2927   1.2979   1.3127   1.3416   1.3849   1.3870   1.4522   1.4635
     1.4791   1.5153   1.5359   1.5432   1.5793   1.6216   1.6303   1.6318
     1.6498   1.6969   1.7048   1.7524   1.7976   1.8266   1.8504   1.8752
     1.9102   1.9138   2.0094   2.0809

          k = 0.1250 0.3730 0.3614 (296563 PWs)   bands (ev):

   -17.7353 -17.7336 -17.3612 -17.3607 -17.3583 -17.3519 -17.2761 -17.2732
   -15.5922 -15.5915 -14.0953 -14.0948 -14.0913 -14.0894 -14.0816 -14.0804
   -14.0783 -14.0769 -14.0748 -14.0745 -14.0724 -14.0710 -14.0587 -14.0576
   -14.0574 -14.0569 -14.0564 -14.0561 -14.0548 -14.0524 -14.0514 -14.0512
   -14.0500 -14.0476 -14.0413 -14.0399 -14.0389 -14.0387 -14.0375 -14.0368
   -14.0367 -14.0364 -14.0358 -14.0352 -14.0349 -14.0324 -14.0217 -14.0201
   -14.0190 -14.0190 -10.3103 -10.3085 -10.2950 -10.2912 -10.2865 -10.2805
    -9.5875  -9.5859  -9.4256  -9.3915  -9.3268  -9.3109  -9.2930  -9.2662
    -9.2532  -9.2231  -9.0510  -9.0481  -9.0087  -9.0079  -8.9743  -8.9715
    -8.9637  -8.9591  -8.9276  -8.9267  -8.8935  -8.8792  -8.8367  -8.8126
    -8.7960  -8.7839  -7.5794  -7.5776  -6.9989  -6.9976  -6.8084  -6.8064
    -6.8029  -6.7991  -6.7962  -6.7924  -6.7716  -6.7664  -6.7632  -6.7622
    -6.6907  -6.6889  -5.4676  -5.3070  -5.2908  -5.2530  -5.2451  -5.1257
    -5.0307  -4.8819  -4.8601  -4.7327  -4.6433  -4.6402  -4.6291  -4.6255
    -4.6177  -4.5973  -3.6949  -3.6928  -3.1551  -3.1540  -2.6445  -2.6419
    -2.6321  -2.6253  -2.6224  -2.6174  -2.6069  -2.6043  -2.5750  -2.5738
    -2.5660  -2.5625  -0.5740  -0.5402  -0.5001  -0.4625  -0.3720  -0.3146
    -0.2975  -0.2078  -0.1940  -0.1283  -0.0667  -0.0203   0.0886   0.0910
     0.2091   0.2216   0.3142   0.3325   0.3983   0.4336   0.4420   0.4895
     0.5294   0.5427   0.5802   0.5928   0.7198   0.7296   0.7591   0.7940
     0.8363   0.8747   0.8941   0.9160   0.9437   0.9545   1.0017   1.0224
     1.0703   1.0753   1.1413   1.1476   1.1738   1.1823   1.2629   1.2741
     1.3245   1.3326   1.3663   1.3732   1.4168   1.4257   1.4651   1.4663
     1.5190   1.5386   1.5488   1.5587   1.5653   1.5993   1.6270   1.6345
     1.6671   1.6940   1.7261   1.7304   1.7548   1.7762   1.8144   1.8438
     1.8666   1.8798   1.9267   1.9480

          k = 0.3750 0.1243 0.1205 (296558 PWs)   bands (ev):

   -17.7353 -17.7336 -17.3612 -17.3607 -17.3583 -17.3519 -17.2761 -17.2732
   -15.5922 -15.5915 -14.0978 -14.0970 -14.0889 -14.0874 -14.0839 -14.0827
   -14.0766 -14.0755 -14.0744 -14.0733 -14.0720 -14.0702 -14.0592 -14.0576
   -14.0575 -14.0571 -14.0565 -14.0562 -14.0548 -14.0524 -14.0514 -14.0512
   -14.0500 -14.0476 -14.0414 -14.0400 -14.0389 -14.0387 -14.0375 -14.0367
   -14.0367 -14.0364 -14.0358 -14.0351 -14.0349 -14.0324 -14.0217 -14.0201
   -14.0190 -14.0190 -10.3103 -10.3079 -10.2974 -10.2931 -10.2848 -10.2790
    -9.5842  -9.5808  -9.4665  -9.4277  -9.3217  -9.2797  -9.2681  -9.2203
    -9.1766  -9.1755  -9.1325  -9.1246  -9.0582  -9.0307  -8.9867  -8.9743
    -8.9475  -8.9452  -8.9358  -8.9294  -8.8574  -8.8458  -8.8338  -8.8099
    -8.8046  -8.7865  -7.5796  -7.5778  -6.9991  -6.9978  -6.8111  -6.8080
    -6.8036  -6.8015  -6.7954  -6.7923  -6.7722  -6.7648  -6.7627  -6.7594
    -6.6890  -6.6869  -5.5719  -5.3877  -5.2542  -5.2512  -5.1660  -5.1416
    -4.9910  -4.9627  -4.7670  -4.6727  -4.6472  -4.6414  -4.6276  -4.6217
    -4.6142  -4.5359  -3.6947  -3.6925  -3.1552  -3.1539  -2.6559  -2.6479
    -2.6337  -2.6273  -2.6186  -2.6165  -2.6105  -2.6083  -2.5707  -2.5677
    -2.5631  -2.5613  -0.7223  -0.7064  -0.6187  -0.5786  -0.5702  -0.5034
    -0.3906  -0.3428  -0.2649  -0.2164  -0.1249  -0.0539   0.0638   0.1536
     0.2255   0.3678   0.4146   0.4372   0.4459   0.5178   0.5189   0.5673
     0.5969   0.6285   0.6713   0.7252   0.7629   0.7809   0.8441   0.8549
     0.8837   0.9663   0.9977   1.0074   1.0454   1.0784   1.1118   1.1138
     1.1476   1.1595   1.1868   1.1892   1.2049   1.2240   1.2318   1.2592
     1.2916   1.3090   1.3236   1.3388   1.3548   1.3632   1.3967   1.4070
     1.4472   1.4494   1.5223   1.5412   1.5670   1.5747   1.6284   1.6534
     1.6843   1.6851   1.7113   1.7592   1.7830   1.8334   1.8378   1.8643
     1.8889   1.9021   1.9674   2.0446

          k = 0.3750 0.1243 0.3614 (296555 PWs)   bands (ev):

   -17.7353 -17.7336 -17.3612 -17.3607 -17.3583 -17.3519 -17.2761 -17.2732
   -15.5922 -15.5915 -14.0954 -14.0949 -14.0914 -14.0895 -14.0816 -14.0802
   -14.0781 -14.0767 -14.0746 -14.0745 -14.0723 -14.0706 -14.0592 -14.0576
   -14.0576 -14.0571 -14.0565 -14.0562 -14.0549 -14.0524 -14.0514 -14.0512
   -14.0501 -14.0476 -14.0413 -14.0399 -14.0389 -14.0387 -14.0375 -14.0367
   -14.0367 -14.0364 -14.0358 -14.0351 -14.0349 -14.0324 -14.0217 -14.0201
   -14.0190 -14.0190 -10.3100 -10.3080 -10.2974 -10.2932 -10.2848 -10.2790
    -9.5809  -9.5795  -9.4358  -9.3956  -9.3694  -9.3246  -9.2823  -9.2618
    -9.2114  -9.2002  -9.0530  -9.0469  -9.0220  -9.0073  -8.9977  -8.9846
    -8.9663  -8.9608  -8.9147  -8.9121  -8.8792  -8.8643  -8.8387  -8.8209
    -8.8016  -8.7928  -7.5799  -7.5781  -6.9992  -6.9979  -6.8103  -6.8081
    -6.8028  -6.7988  -6.7950  -6.7909  -6.7720  -6.7663  -6.7612  -6.7603
    -6.6907  -6.6889  -5.4585  -5.2987  -5.2617  -5.2529  -5.2481  -5.0997
    -5.0599  -4.8976  -4.8880  -4.7440  -4.6431  -4.6372  -4.6322  -4.6247
    -4.6182  -4.6018  -3.6949  -3.6928  -3.1551  -3.1540  -2.6474  -2.6449
    -2.6338  -2.6275  -2.6233  -2.6186  -2.6095  -2.6068  -2.5712  -2.5676
    -2.5637  -2.5611  -0.5461  -0.5129  -0.4511  -0.4419  -0.3287  -0.3034
    -0.2792  -0.2388  -0.1955  -0.1698  -0.0770  -0.0511   0.0506   0.0722
     0.2474   0.2646   0.3238   0.3326   0.3838   0.4108   0.4631   0.4818
     0.4927   0.5362   0.5900   0.6169   0.7346   0.7365   0.8002   0.8203
     0.8624   0.8636   0.9428   0.9492   0.9762   0.9836   1.0022   1.0184
     1.0749   1.0878   1.1093   1.1135   1.1665   1.1860   1.2327   1.2564
     1.3195   1.3218   1.3461   1.3532   1.3795   1.3907   1.4307   1.4408
     1.5058   1.5281   1.5319   1.5567   1.5769   1.5851   1.6166   1.6392
     1.6672   1.6822   1.6970   1.7291   1.7806   1.7868   1.8111   1.8255
     1.8391   1.8519   1.9144   1.9370

          k = 0.3750 0.3730 0.1205 (296610 PWs)   bands (ev):

   -17.7353 -17.7336 -17.3612 -17.3607 -17.3583 -17.3519 -17.2761 -17.2732
   -15.5922 -15.5915 -14.0977 -14.0968 -14.0887 -14.0871 -14.0836 -14.0826
   -14.0756 -14.0746 -14.0741 -14.0737 -14.0724 -14.0706 -14.0595 -14.0582
   -14.0576 -14.0573 -14.0567 -14.0566 -14.0550 -14.0525 -14.0515 -14.0513
   -14.0501 -14.0476 -14.0414 -14.0400 -14.0389 -14.0387 -14.0375 -14.0367
   -14.0367 -14.0364 -14.0358 -14.0351 -14.0349 -14.0324 -14.0217 -14.0201
   -14.0190 -14.0190 -10.3100 -10.3079 -10.2954 -10.2912 -10.2872 -10.2807
    -9.5873  -9.5823  -9.4267  -9.4027  -9.3718  -9.3074  -9.2429  -9.2157
    -9.2029  -9.1804  -9.1282  -9.1255  -9.0959  -9.0754  -8.9442  -8.9407
    -8.9393  -8.9336  -8.9195  -8.9012  -8.8633  -8.8544  -8.8380  -8.8287
    -8.7988  -8.7966  -7.5795  -7.5773  -6.9991  -6.9977  -6.8103  -6.8076
    -6.8043  -6.8010  -6.7943  -6.7935  -6.7724  -6.7653  -6.7636  -6.7593
    -6.6894  -6.6869  -5.4631  -5.3125  -5.2644  -5.2543  -5.2512  -5.1167
    -5.0428  -4.8904  -4.8611  -4.7412  -4.6437  -4.6400  -4.6330  -4.6233
    -4.6144  -4.5909  -3.6952  -3.6928  -3.1551  -3.1541  -2.6517  -2.6488
    -2.6295  -2.6250  -2.6190  -2.6168  -2.6088  -2.6080  -2.5727  -2.5696
    -2.5645  -2.5624  -0.6902  -0.6780  -0.6476  -0.6056  -0.3314  -0.2420
    -0.2194  -0.1906  -0.1523  -0.1238  -0.0312  -0.0062   0.1244   0.1415
     0.2194   0.2255   0.3797   0.4031   0.4540   0.4570   0.4917   0.5107
     0.5283   0.5581   0.6087   0.6302   0.6429   0.6877   0.7235   0.7714
     0.8785   0.9680   0.9951   1.0249   1.0329   1.0577   1.0881   1.1033
     1.1322   1.1429   1.1698   1.1796   1.1856   1.1969   1.2022   1.2431
     1.2476   1.2743   1.3210   1.3251   1.3405   1.3727   1.3807   1.4112
     1.4221   1.4339   1.4948   1.4984   1.5160   1.5428   1.6195   1.6249
     1.6575   1.6678   1.7190   1.7472   1.7778   1.7963   1.8461   1.8565
     1.8793   1.8921   1.9748   1.9781

          k = 0.3750 0.3730 0.3614 (296527 PWs)   bands (ev):

   -17.7353 -17.7336 -17.3612 -17.3607 -17.3583 -17.3519 -17.2761 -17.2732
   -15.5922 -15.5915 -14.0952 -14.0947 -14.0912 -14.0893 -14.0812 -14.0801
   -14.0773 -14.0763 -14.0745 -14.0743 -14.0728 -14.0707 -14.0595 -14.0582
   -14.0576 -14.0573 -14.0567 -14.0566 -14.0550 -14.0525 -14.0515 -14.0512
   -14.0501 -14.0476 -14.0414 -14.0400 -14.0389 -14.0387 -14.0375 -14.0367
   -14.0367 -14.0364 -14.0358 -14.0351 -14.0349 -14.0324 -14.0217 -14.0201
   -14.0190 -14.0190 -10.3099 -10.3079 -10.2953 -10.2913 -10.2870 -10.2808
    -9.5836  -9.5814  -9.3990  -9.3683  -9.3632  -9.3127  -9.3100  -9.2874
    -9.2580  -9.2290  -9.0514  -9.0484  -9.0266  -9.0261  -8.9678  -8.9613
    -8.9561  -8.9554  -8.9058  -8.8939  -8.8765  -8.8745  -8.8298  -8.8226
    -8.8097  -8.8053  -7.5796  -7.5778  -6.9991  -6.9978  -6.8096  -6.8078
    -6.8025  -6.7990  -6.7939  -6.7919  -6.7721  -6.7669  -6.7621  -6.7604
    -6.6909  -6.6890  -5.3530  -5.2563  -5.2521  -5.2055  -5.1785  -5.1513
    -5.0338  -5.0086  -4.9896  -4.8545  -4.6410  -4.6386  -4.6337  -4.6260
    -4.6192  -4.6127  -3.6953  -3.6931  -3.1551  -3.1541  -2.6452  -2.6442
    -2.6313  -2.6257  -2.6222  -2.6183  -2.6094  -2.6073  -2.5719  -2.5689
    -2.5640  -2.5616  -0.3650  -0.3450  -0.3212  -0.3016  -0.2489  -0.2402
    -0.1814  -0.1472  -0.1409  -0.0917  -0.0533  -0.0473   0.0854   0.0953
     0.2200   0.2426   0.2903   0.3295   0.3453   0.3483   0.3696   0.4080
     0.4465   0.4751   0.5104   0.5298   0.7400   0.7516   0.7793   0.8184
     0.8475   0.8517   0.9000   0.9006   0.9387   0.9406   0.9688   0.9804
     1.0284   1.0473   1.0724   1.0966   1.1630   1.1742   1.1944   1.1974
     1.2295   1.2558   1.2994   1.3195   1.3863   1.3892   1.4246   1.4397
     1.4436   1.4461   1.5127   1.5294   1.5510   1.5551   1.5929   1.6001
     1.6648   1.6674   1.7061   1.7141   1.7678   1.7718   1.8270   1.8329
     1.8674   1.8803   1.9002   1.9050

          k =-0.1250-0.1243 0.1205 (296502 PWs)   bands (ev):

   -17.7353 -17.7336 -17.3612 -17.3607 -17.3583 -17.3519 -17.2761 -17.2731
   -15.5922 -15.5915 -14.0980 -14.0971 -14.0891 -14.0875 -14.0844 -14.0826
   -14.0778 -14.0762 -14.0755 -14.0735 -14.0715 -14.0694 -14.0588 -14.0574
   -14.0573 -14.0570 -14.0560 -14.0557 -14.0545 -14.0524 -14.0513 -14.0511
   -14.0499 -14.0475 -14.0413 -14.0399 -14.0389 -14.0387 -14.0375 -14.0368
   -14.0367 -14.0363 -14.0358 -14.0351 -14.0349 -14.0324 -14.0217 -14.0201
   -14.0190 -14.0189 -10.3124 -10.3094 -10.2953 -10.2917 -10.2846 -10.2787
    -9.5929  -9.5859  -9.4860  -9.3769  -9.3423  -9.2946  -9.2584  -9.2004
    -9.1847  -9.1662  -9.1324  -9.0892  -9.0540  -8.9976  -8.9929  -8.9767
    -8.9755  -8.9598  -8.9544  -8.9431  -8.9071  -8.8596  -8.8293  -8.8003
    -8.7832  -8.7606  -7.5803  -7.5767  -6.9990  -6.9976  -6.8106  -6.8061
    -6.8046  -6.8012  -6.7972  -6.7928  -6.7721  -6.7645  -6.7639  -6.7599
    -6.6889  -6.6866  -5.6936  -5.2852  -5.2668  -5.2526  -5.2450  -5.2343
    -4.8651  -4.8508  -4.8222  -4.6559  -4.6463  -4.6373  -4.6329  -4.6240
    -4.6169  -4.4164  -3.6940  -3.6918  -3.1556  -3.1534  -2.6614  -2.6430
    -2.6412  -2.6311  -2.6136  -2.6121  -2.6048  -2.6014  -2.5745  -2.5724
    -2.5663  -2.5605  -0.7381  -0.6970  -0.6443  -0.6345  -0.6104  -0.5426
    -0.5415  -0.4791  -0.4360  -0.3818  -0.3749  -0.2973   0.0237   0.1294
     0.3834   0.4425   0.4697   0.4729   0.5247   0.5447   0.5621   0.6450
     0.6790   0.6802   0.7389   0.7596   0.8116   0.8856   0.8886   0.9071
     0.9473   0.9842   1.0212   1.0528   1.0675   1.1022   1.1081   1.1320
     1.1467   1.1636   1.1800   1.1986   1.2033   1.2293   1.2441   1.2587
     1.3016   1.3116   1.3230   1.3818   1.3837   1.4476   1.4703   1.4740
     1.4820   1.4846   1.5443   1.5531   1.5535   1.5617   1.5963   1.6081
     1.6683   1.6993   1.7342   1.7861   1.8024   1.8338   1.8472   1.8845
     1.9059   1.9784   2.0615   2.2343

          k =-0.1250 0.1243-0.1205 (296502 PWs)   bands (ev):

   -17.7353 -17.7336 -17.3612 -17.3607 -17.3583 -17.3519 -17.2761 -17.2731
   -15.5922 -15.5915 -14.0980 -14.0971 -14.0891 -14.0875 -14.0844 -14.0826
   -14.0778 -14.0762 -14.0755 -14.0735 -14.0715 -14.0694 -14.0588 -14.0574
   -14.0573 -14.0570 -14.0560 -14.0557 -14.0545 -14.0524 -14.0513 -14.0511
   -14.0499 -14.0475 -14.0413 -14.0399 -14.0389 -14.0387 -14.0375 -14.0368
   -14.0367 -14.0363 -14.0358 -14.0351 -14.0349 -14.0324 -14.0217 -14.0201
   -14.0190 -14.0189 -10.3128 -10.3099 -10.2947 -10.2913 -10.2849 -10.2785
    -9.5924  -9.5863  -9.4879  -9.3759  -9.3377  -9.2924  -9.2656  -9.2003
    -9.1867  -9.1609  -9.1350  -9.0859  -9.0626  -8.9973  -8.9894  -8.9775
    -8.9647  -8.9571  -8.9542  -8.9486  -8.9140  -8.8608  -8.8290  -8.8008
    -8.7819  -8.7595  -7.5805  -7.5764  -6.9990  -6.9976  -6.8104  -6.8061
    -6.8045  -6.8014  -6.7980  -6.7919  -6.7720  -6.7647  -6.7635  -6.7606
    -6.6887  -6.6867  -5.6938  -5.2846  -5.2668  -5.2527  -5.2457  -5.2338
    -4.8656  -4.8510  -4.8237  -4.6558  -4.6463  -4.6376  -4.6331  -4.6231
    -4.6144  -4.4176  -3.6939  -3.6916  -3.1556  -3.1534  -2.6616  -2.6424
    -2.6408  -2.6303  -2.6138  -2.6126  -2.6061  -2.6021  -2.5736  -2.5724
    -2.5664  -2.5601  -0.7385  -0.6995  -0.6568  -0.6433  -0.5924  -0.5432
    -0.5345  -0.4757  -0.4359  -0.3839  -0.3704  -0.3038   0.0281   0.1278
     0.3915   0.4332   0.4728   0.4924   0.5137   0.5476   0.5498   0.6489
     0.6700   0.6731   0.7340   0.7643   0.8086   0.8735   0.8779   0.9336
     0.9501   0.9771   1.0210   1.0574   1.0590   1.0946   1.1052   1.1248
     1.1418   1.1613   1.1779   1.2050   1.2060   1.2379   1.2659   1.2734
     1.2882   1.3115   1.3345   1.3837   1.3850   1.4447   1.4666   1.4692
     1.4771   1.4975   1.5413   1.5489   1.5562   1.5747   1.5940   1.6038
     1.6674   1.7038   1.7164   1.7830   1.8091   1.8359   1.8483   1.8824
     1.9043   1.9757   2.0666   2.2343

          k = 0.1250-0.1243-0.1205 (296502 PWs)   bands (ev):

   -17.7353 -17.7336 -17.3612 -17.3607 -17.3583 -17.3519 -17.2761 -17.2731
   -15.5922 -15.5915 -14.0980 -14.0971 -14.0891 -14.0875 -14.0844 -14.0826
   -14.0778 -14.0762 -14.0755 -14.0735 -14.0715 -14.0694 -14.0588 -14.0574
   -14.0573 -14.0570 -14.0560 -14.0557 -14.0545 -14.0524 -14.0513 -14.0511
   -14.0499 -14.0475 -14.0413 -14.0399 -14.0389 -14.0387 -14.0375 -14.0368
   -14.0367 -14.0363 -14.0358 -14.0351 -14.0349 -14.0324 -14.0217 -14.0201
   -14.0190 -14.0189 -10.3128 -10.3099 -10.2947 -10.2913 -10.2849 -10.2785
    -9.5923  -9.5864  -9.4880  -9.3757  -9.3376  -9.2925  -9.2656  -9.2000
    -9.1871  -9.1613  -9.1350  -9.0851  -9.0626  -8.9972  -8.9895  -8.9765
    -8.9685  -8.9576  -8.9508  -8.9492  -8.9139  -8.8608  -8.8289  -8.8006
    -8.7821  -8.7595  -7.5805  -7.5764  -6.9990  -6.9976  -6.8102  -6.8065
    -6.8046  -6.8011  -6.7979  -6.7921  -6.7720  -6.7645  -6.7637  -6.7605
    -6.6887  -6.6867  -5.6938  -5.2849  -5.2664  -5.2527  -5.2458  -5.2338
    -4.8661  -4.8505  -4.8236  -4.6558  -4.6464  -4.6376  -4.6331  -4.6231
    -4.6144  -4.4176  -3.6939  -3.6916  -3.1556  -3.1534  -2.6615  -2.6425
    -2.6407  -2.6306  -2.6138  -2.6124  -2.6059  -2.6023  -2.5735  -2.5727
    -2.5666  -2.5597  -0.7386  -0.6992  -0.6568  -0.6433  -0.5915  -0.5441
    -0.5339  -0.4763  -0.4363  -0.3841  -0.3703  -0.3039   0.0279   0.1280
     0.3912   0.4333   0.4732   0.4927   0.5133   0.5477   0.5497   0.6486
     0.6709   0.6736   0.7337   0.7643   0.8076   0.8726   0.8788   0.9343
     0.9501   0.9771   1.0205   1.0574   1.0610   1.0961   1.1055   1.1244
     1.1434   1.1631   1.1768   1.2033   1.2065   1.2356   1.2691   1.2719
     1.2877   1.3118   1.3316   1.3808   1.3840   1.4445   1.4678   1.4711
     1.4759   1.5000   1.5426   1.5491   1.5532   1.5774   1.5900   1.6028
     1.6703   1.7022   1.7179   1.7832   1.8075   1.8361   1.8476   1.8827
     1.9063   1.9756   2.0662   2.2350

          k =-0.1250-0.1243 0.3614 (296563 PWs)   bands (ev):

   -17.7353 -17.7336 -17.3612 -17.3607 -17.3583 -17.3519 -17.2761 -17.2731
   -15.5922 -15.5915 -14.0955 -14.0950 -14.0915 -14.0897 -14.0823 -14.0801
   -14.0792 -14.0762 -14.0761 -14.0756 -14.0714 -14.0702 -14.0588 -14.0574
   -14.0573 -14.0570 -14.0560 -14.0557 -14.0545 -14.0524 -14.0513 -14.0511
   -14.0499 -14.0475 -14.0413 -14.0399 -14.0389 -14.0387 -14.0375 -14.0368
   -14.0367 -14.0363 -14.0358 -14.0352 -14.0349 -14.0324 -14.0217 -14.0201
   -14.0190 -14.0189 -10.3116 -10.3099 -10.2952 -10.2917 -10.2846 -10.2788
    -9.5855  -9.5834  -9.4623  -9.4070  -9.3426  -9.2850  -9.2840  -9.2517
    -9.2082  -9.1996  -9.0545  -9.0393  -9.0181  -9.0086  -8.9847  -8.9835
    -8.9826  -8.9683  -8.9334  -8.9315  -8.8887  -8.8692  -8.8594  -8.8299
    -8.7763  -8.7674  -7.5798  -7.5776  -6.9990  -6.9977  -6.8094  -6.8068
    -6.8033  -6.7988  -6.7949  -6.7936  -6.7716  -6.7654  -6.7633  -6.7610
    -6.6906  -6.6888  -5.5771  -5.3990  -5.2536  -5.2506  -5.1722  -5.1284
    -5.0009  -4.9577  -4.7585  -4.6673  -4.6486  -4.6419  -4.6302  -4.6229
    -4.6126  -4.5375  -3.6943  -3.6921  -3.1552  -3.1539  -2.6486  -2.6433
    -2.6402  -2.6279  -2.6231  -2.6178  -2.6015  -2.5987  -2.5746  -2.5727
    -2.5658  -2.5619  -0.6130  -0.5826  -0.5793  -0.5305  -0.4546  -0.4119
    -0.4024  -0.3940  -0.2729  -0.2610  -0.2303  -0.1470   0.0325   0.1031
     0.2777   0.3110   0.3862   0.4151   0.4574   0.4926   0.5098   0.5523
     0.5687   0.5779   0.5963   0.6334   0.6520   0.6815   0.8235   0.8681
     0.8770   0.9105   0.9481   0.9808   1.0333   1.0439   1.0864   1.0935
     1.1191   1.1325   1.1518   1.1686   1.2578   1.2634   1.2909   1.3134
     1.3267   1.3517   1.3702   1.3750   1.4216   1.4374   1.4617   1.4881
     1.5104   1.5190   1.5221   1.5311   1.5693   1.5712   1.5964   1.6260
     1.6587   1.6995   1.7197   1.7440   1.7563   1.8010   1.8038   1.8248
     1.8539   1.8636   2.0700   2.1079

          k =-0.1250 0.1243-0.3614 (296563 PWs)   bands (ev):

   -17.7353 -17.7336 -17.3612 -17.3607 -17.3583 -17.3519 -17.2761 -17.2731
   -15.5922 -15.5915 -14.0955 -14.0950 -14.0915 -14.0897 -14.0823 -14.0801
   -14.0792 -14.0762 -14.0761 -14.0756 -14.0714 -14.0702 -14.0588 -14.0574
   -14.0573 -14.0570 -14.0560 -14.0557 -14.0545 -14.0524 -14.0513 -14.0511
   -14.0499 -14.0475 -14.0413 -14.0399 -14.0389 -14.0387 -14.0375 -14.0368
   -14.0367 -14.0363 -14.0358 -14.0352 -14.0349 -14.0324 -14.0217 -14.0201
   -14.0190 -14.0189 -10.3120 -10.3104 -10.2946 -10.2913 -10.2847 -10.2788
    -9.5851  -9.5834  -9.4642  -9.4081  -9.3410  -9.2840  -9.2799  -9.2527
    -9.2075  -9.2028  -9.0554  -9.0396  -9.0209  -9.0094  -8.9891  -8.9810
    -8.9767  -8.9650  -8.9366  -8.9319  -8.8838  -8.8760  -8.8577  -8.8316
    -8.7751  -8.7663  -7.5799  -7.5775  -6.9991  -6.9977  -6.8095  -6.8067
    -6.8023  -6.7996  -6.7958  -6.7926  -6.7716  -6.7658  -6.7628  -6.7615
    -6.6906  -6.6888  -5.5771  -5.3988  -5.2537  -5.2507  -5.1720  -5.1289
    -5.0011  -4.9585  -4.7578  -4.6645  -4.6500  -4.6431  -4.6299  -4.6228
    -4.6113  -4.5389  -3.6942  -3.6920  -3.1552  -3.1539  -2.6491  -2.6427
    -2.6388  -2.6279  -2.6233  -2.6177  -2.6027  -2.5998  -2.5742  -2.5720
    -2.5655  -2.5621  -0.6248  -0.5875  -0.5714  -0.5247  -0.4529  -0.4164
    -0.4019  -0.3858  -0.2790  -0.2547  -0.2294  -0.1510   0.0374   0.1014
     0.2757   0.3101   0.3875   0.4225   0.4660   0.4875   0.5123   0.5392
     0.5676   0.5738   0.6073   0.6224   0.6389   0.6999   0.8293   0.8652
     0.8672   0.9025   0.9382   0.9784   1.0271   1.0532   1.0779   1.0873
     1.1169   1.1317   1.1545   1.1714   1.2691   1.2836   1.3020   1.3246
     1.3324   1.3387   1.3554   1.3883   1.4253   1.4351   1.4515   1.4902
     1.5092   1.5169   1.5279   1.5338   1.5699   1.5732   1.5993   1.6253
     1.6687   1.6903   1.7073   1.7433   1.7618   1.7986   1.8062   1.8234
     1.8504   1.8602   2.0731   2.1078

          k = 0.1250-0.1243-0.3614 (296563 PWs)   bands (ev):

   -17.7353 -17.7336 -17.3612 -17.3607 -17.3583 -17.3519 -17.2761 -17.2731
   -15.5922 -15.5915 -14.0955 -14.0950 -14.0915 -14.0897 -14.0823 -14.0801
   -14.0792 -14.0762 -14.0761 -14.0756 -14.0714 -14.0702 -14.0588 -14.0574
   -14.0573 -14.0570 -14.0560 -14.0557 -14.0545 -14.0524 -14.0513 -14.0511
   -14.0499 -14.0475 -14.0413 -14.0399 -14.0389 -14.0387 -14.0375 -14.0368
   -14.0367 -14.0363 -14.0358 -14.0352 -14.0349 -14.0324 -14.0217 -14.0201
   -14.0190 -14.0189 -10.3120 -10.3104 -10.2946 -10.2913 -10.2847 -10.2788
    -9.5850  -9.5835  -9.4645  -9.4075  -9.3414  -9.2837  -9.2797  -9.2528
    -9.2072  -9.2034  -9.0561  -9.0387  -9.0194  -9.0097  -8.9877  -8.9852
    -8.9752  -8.9659  -8.9382  -8.9291  -8.8843  -8.8761  -8.8576  -8.8314
    -8.7753  -8.7662  -7.5799  -7.5776  -6.9991  -6.9977  -6.8092  -6.8071
    -6.8025  -6.7992  -6.7954  -6.7930  -6.7716  -6.7657  -6.7630  -6.7613
    -6.6906  -6.6888  -5.5771  -5.3989  -5.2537  -5.2507  -5.1720  -5.1289
    -5.0011  -4.9586  -4.7575  -4.6647  -4.6501  -4.6431  -4.6299  -4.6227
    -4.6113  -4.5389  -3.6942  -3.6920  -3.1552  -3.1539  -2.6488  -2.6426
    -2.6394  -2.6279  -2.6234  -2.6176  -2.6027  -2.5998  -2.5740  -2.5723
    -2.5660  -2.5615  -0.6252  -0.5871  -0.5715  -0.5242  -0.4532  -0.4144
    -0.4021  -0.3860  -0.2806  -0.2550  -0.2303  -0.1509   0.0370   0.1017
     0.2765   0.3103   0.3882   0.4221   0.4662   0.4875   0.5115   0.5396
     0.5673   0.5739   0.6075   0.6226   0.6392   0.6999   0.8305   0.8662
     0.8667   0.9005   0.9391   0.9764   1.0262   1.0551   1.0812   1.0874
     1.1158   1.1317   1.1524   1.1718   1.2691   1.2851   1.3058   1.3207
     1.3301   1.3358   1.3584   1.3848   1.4240   1.4357   1.4550   1.4915
     1.5084   1.5181   1.5283   1.5333   1.5709   1.5722   1.5976   1.6225
     1.6685   1.6937   1.7067   1.7442   1.7616   1.7958   1.8073   1.8247
     1.8509   1.8601   2.0724   2.1087

          k =-0.1250-0.3730 0.1205 (296601 PWs)   bands (ev):

   -17.7353 -17.7336 -17.3612 -17.3607 -17.3583 -17.3519 -17.2761 -17.2732
   -15.5922 -15.5915 -14.0978 -14.0970 -14.0888 -14.0873 -14.0839 -14.0828
   -14.0768 -14.0758 -14.0746 -14.0734 -14.0720 -14.0706 -14.0587 -14.0576
   -14.0574 -14.0569 -14.0564 -14.0560 -14.0548 -14.0524 -14.0514 -14.0512
   -14.0500 -14.0476 -14.0413 -14.0400 -14.0389 -14.0387 -14.0375 -14.0368
   -14.0367 -14.0364 -14.0358 -14.0351 -14.0349 -14.0324 -14.0217 -14.0201
   -14.0190 -14.0190 -10.3105 -10.3084 -10.2951 -10.2912 -10.2865 -10.2805
    -9.5929  -9.5890  -9.4458  -9.3892  -9.3493  -9.2878  -9.2690  -9.2177
    -9.1960  -9.1903  -9.1301  -9.1263  -9.0405  -9.0215  -8.9691  -8.9663
    -8.9573  -8.9481  -8.9392  -8.9246  -8.8760  -8.8550  -8.8525  -8.8096
    -8.7875  -8.7735  -7.5792  -7.5773  -6.9989  -6.9976  -6.8090  -6.8060
    -6.8038  -6.8019  -6.7959  -6.7949  -6.7721  -6.7652  -6.7641  -6.7610
    -6.6890  -6.6869  -5.5812  -5.4119  -5.2544  -5.2513  -5.1540  -5.1348
    -4.9910  -4.9761  -4.7399  -4.6681  -4.6459  -4.6395  -4.6305  -4.6262
    -4.6071  -4.5234  -3.6947  -3.6925  -3.1552  -3.1539  -2.6536  -2.6459
    -2.6317  -2.6248  -2.6149  -2.6137  -2.6081  -2.6063  -2.5760  -2.5732
    -2.5668  -2.5635  -0.7116  -0.6757  -0.6465  -0.5991  -0.5717  -0.5299
    -0.4950  -0.4267  -0.2837  -0.1195  -0.0769   0.0013   0.1049   0.1092
     0.1763   0.3558   0.3920   0.4547   0.4789   0.4927   0.5464   0.5617
     0.5915   0.6100   0.6432   0.6999   0.7465   0.7990   0.8366   0.8837
     0.8907   0.9216   1.0142   1.0155   1.0534   1.0552   1.0963   1.0972
     1.1228   1.1307   1.1693   1.1844   1.2058   1.2082   1.2475   1.2515
     1.2918   1.2989   1.3140   1.3373   1.3868   1.3886   1.4525   1.4644
     1.4775   1.5153   1.5356   1.5438   1.5788   1.6221   1.6295   1.6318
     1.6510   1.6955   1.7052   1.7529   1.7979   1.8257   1.8513   1.8749
     1.9102   1.9136   2.0087   2.0807

          k =-0.1250 0.3730-0.1205 (296601 PWs)   bands (ev):

   -17.7353 -17.7336 -17.3612 -17.3607 -17.3583 -17.3519 -17.2761 -17.2732
   -15.5922 -15.5915 -14.0978 -14.0970 -14.0888 -14.0873 -14.0839 -14.0828
   -14.0768 -14.0758 -14.0746 -14.0734 -14.0720 -14.0706 -14.0587 -14.0577
   -14.0574 -14.0569 -14.0564 -14.0560 -14.0548 -14.0524 -14.0514 -14.0512
   -14.0500 -14.0476 -14.0413 -14.0400 -14.0389 -14.0387 -14.0375 -14.0368
   -14.0367 -14.0364 -14.0358 -14.0351 -14.0349 -14.0324 -14.0217 -14.0201
   -14.0190 -14.0190 -10.3109 -10.3090 -10.2943 -10.2908 -10.2867 -10.2804
    -9.5919  -9.5900  -9.4493  -9.3908  -9.3278  -9.3062  -9.2695  -9.2173
    -9.1967  -9.1856  -9.1374  -9.1204  -9.0487  -9.0144  -8.9709  -8.9600
    -8.9537  -8.9475  -8.9452  -8.9240  -8.8773  -8.8588  -8.8544  -8.8062
    -8.7891  -8.7710  -7.5796  -7.5768  -6.9989  -6.9976  -6.8083  -6.8063
    -6.8046  -6.8014  -6.7965  -6.7939  -6.7720  -6.7652  -6.7639  -6.7615
    -6.6888  -6.6870  -5.5815  -5.4116  -5.2545  -5.2514  -5.1531  -5.1348
    -4.9921  -4.9763  -4.7448  -4.6620  -4.6482  -4.6394  -4.6288  -4.6270
    -4.6023  -4.5277  -3.6946  -3.6923  -3.1552  -3.1539  -2.6539  -2.6457
    -2.6293  -2.6235  -2.6165  -2.6149  -2.6092  -2.6071  -2.5745  -2.5739
    -2.5671  -2.5627  -0.7150  -0.6717  -0.6474  -0.6076  -0.5768  -0.5240
    -0.4882  -0.4272  -0.2817  -0.1153  -0.0769  -0.0068   0.1041   0.1211
     0.1836   0.3481   0.3946   0.4634   0.4660   0.5075   0.5215   0.5601
     0.5955   0.6060   0.6369   0.7103   0.7540   0.7900   0.8208   0.8484
     0.9081   0.9382   1.0069   1.0084   1.0540   1.0770   1.0898   1.0932
     1.1311   1.1396   1.1634   1.1794   1.1954   1.2307   1.2378   1.2646
     1.2992   1.3052   1.3304   1.3426   1.3682   1.3734   1.4603   1.4646
     1.4797   1.5134   1.5331   1.5646   1.5651   1.6092   1.6108   1.6549
     1.6586   1.6839   1.7226   1.7511   1.7866   1.8107   1.8493   1.8754
     1.9052   1.9339   1.9993   2.0887

          k = 0.1250-0.3730-0.1205 (296601 PWs)   bands (ev):

   -17.7353 -17.7336 -17.3612 -17.3607 -17.3583 -17.3519 -17.2761 -17.2732
   -15.5922 -15.5915 -14.0978 -14.0970 -14.0888 -14.0873 -14.0839 -14.0828
   -14.0768 -14.0758 -14.0746 -14.0734 -14.0720 -14.0706 -14.0587 -14.0577
   -14.0574 -14.0569 -14.0564 -14.0560 -14.0548 -14.0524 -14.0514 -14.0512
   -14.0500 -14.0476 -14.0413 -14.0400 -14.0389 -14.0387 -14.0375 -14.0368
   -14.0367 -14.0364 -14.0358 -14.0351 -14.0349 -14.0324 -14.0217 -14.0201
   -14.0190 -14.0190 -10.3109 -10.3090 -10.2943 -10.2907 -10.2867 -10.2804
    -9.5919  -9.5900  -9.4495  -9.3905  -9.3278  -9.3062  -9.2698  -9.2151
    -9.1963  -9.1888  -9.1383  -9.1187  -9.0485  -9.0138  -8.9706  -8.9623
    -8.9543  -8.9459  -8.9450  -8.9241  -8.8774  -8.8588  -8.8542  -8.8057
    -8.7896  -8.7709  -7.5796  -7.5768  -6.9989  -6.9976  -6.8083  -6.8066
    -6.8039  -6.8016  -6.7973  -6.7934  -6.7719  -6.7652  -6.7638  -6.7617
    -6.6888  -6.6870  -5.5815  -5.4116  -5.2545  -5.2514  -5.1530  -5.1348
    -4.9926  -4.9757  -4.7448  -4.6621  -4.6482  -4.6394  -4.6288  -4.6270
    -4.6021  -4.5278  -3.6946  -3.6923  -3.1552  -3.1539  -2.6538  -2.6456
    -2.6295  -2.6236  -2.6167  -2.6149  -2.6092  -2.6068  -2.5752  -2.5733
    -2.5674  -2.5623  -0.7149  -0.6720  -0.6467  -0.6077  -0.5768  -0.5225
    -0.4906  -0.4265  -0.2821  -0.1154  -0.0770  -0.0070   0.1045   0.1206
     0.1837   0.3484   0.3945   0.4625   0.4660   0.5079   0.5225   0.5617
     0.5945   0.6054   0.6369   0.7117   0.7537   0.7904   0.8200   0.8484
     0.9075   0.9372   1.0084   1.0106   1.0538   1.0766   1.0909   1.0915
     1.1308   1.1398   1.1611   1.1796   1.1960   1.2351   1.2397   1.2602
     1.2960   1.3070   1.3316   1.3428   1.3663   1.3721   1.4603   1.4647
     1.4794   1.5111   1.5338   1.5650   1.5667   1.6094   1.6104   1.6527
     1.6608   1.6855   1.7223   1.7500   1.7864   1.8112   1.8486   1.8761
     1.9058   1.9337   1.9995   2.0890

          k =-0.1250-0.3730 0.3614 (296563 PWs)   bands (ev):

   -17.7353 -17.7336 -17.3612 -17.3607 -17.3583 -17.3519 -17.2761 -17.2732
   -15.5922 -15.5915 -14.0953 -14.0948 -14.0913 -14.0894 -14.0816 -14.0804
   -14.0783 -14.0769 -14.0748 -14.0745 -14.0724 -14.0710 -14.0587 -14.0576
   -14.0574 -14.0569 -14.0564 -14.0560 -14.0548 -14.0524 -14.0514 -14.0512
   -14.0500 -14.0476 -14.0413 -14.0399 -14.0389 -14.0387 -14.0375 -14.0368
   -14.0367 -14.0364 -14.0358 -14.0352 -14.0349 -14.0324 -14.0217 -14.0201
   -14.0190 -14.0190 -10.3103 -10.3085 -10.2950 -10.2912 -10.2865 -10.2805
    -9.5874  -9.5860  -9.4251  -9.3929  -9.3266  -9.3093  -9.2939  -9.2657
    -9.2530  -9.2239  -9.0508  -9.0493  -9.0074  -9.0054  -8.9770  -8.9751
    -8.9629  -8.9561  -8.9278  -8.9264  -8.8936  -8.8794  -8.8364  -8.8139
    -8.7946  -8.7843  -7.5794  -7.5776  -6.9989  -6.9976  -6.8087  -6.8063
    -6.8029  -6.7990  -6.7957  -6.7930  -6.7716  -6.7663  -6.7635  -6.7621
    -6.6908  -6.6889  -5.4676  -5.3056  -5.2921  -5.2531  -5.2453  -5.1256
    -5.0306  -4.8810  -4.8611  -4.7329  -4.6434  -4.6401  -4.6291  -4.6254
    -4.6180  -4.5970  -3.6950  -3.6928  -3.1551  -3.1540  -2.6442  -2.6418
    -2.6326  -2.6251  -2.6220  -2.6180  -2.6068  -2.6042  -2.5755  -2.5730
    -2.5661  -2.5626  -0.5728  -0.5434  -0.4960  -0.4644  -0.3728  -0.3154
    -0.2974  -0.2092  -0.1924  -0.1261  -0.0666  -0.0197   0.0893   0.0899
     0.2091   0.2207   0.3113   0.3329   0.3990   0.4360   0.4426   0.4880
     0.5267   0.5434   0.5797   0.5948   0.7177   0.7305   0.7594   0.7932
     0.8366   0.8751   0.8968   0.9138   0.9439   0.9536   1.0038   1.0216
     1.0714   1.0746   1.1424   1.1461   1.1732   1.1833   1.2654   1.2711
     1.3241   1.3328   1.3668   1.3725   1.4204   1.4240   1.4628   1.4673
     1.5183   1.5392   1.5483   1.5600   1.5659   1.5992   1.6259   1.6342
     1.6680   1.6941   1.7274   1.7297   1.7535   1.7782   1.8124   1.8442
     1.8670   1.8799   1.9252   1.9485

          k =-0.1250 0.3730-0.3614 (296563 PWs)   bands (ev):

   -17.7353 -17.7336 -17.3612 -17.3607 -17.3583 -17.3519 -17.2761 -17.2732
   -15.5922 -15.5915 -14.0953 -14.0948 -14.0913 -14.0894 -14.0816 -14.0804
   -14.0783 -14.0769 -14.0748 -14.0745 -14.0724 -14.0710 -14.0587 -14.0576
   -14.0574 -14.0569 -14.0564 -14.0561 -14.0548 -14.0524 -14.0514 -14.0512
   -14.0500 -14.0476 -14.0413 -14.0399 -14.0389 -14.0387 -14.0375 -14.0368
   -14.0367 -14.0364 -14.0358 -14.0352 -14.0349 -14.0324 -14.0217 -14.0201
   -14.0190 -14.0190 -10.3108 -10.3091 -10.2942 -10.2907 -10.2866 -10.2805
    -9.5868  -9.5863  -9.4283  -9.3932  -9.3282  -9.2989  -9.2926  -9.2732
    -9.2413  -9.2342  -9.0555  -9.0452  -9.0177  -9.0006  -8.9733  -8.9718
    -8.9647  -8.9491  -8.9362  -8.9251  -8.8944  -8.8768  -8.8411  -8.8156
    -8.7925  -8.7817  -7.5794  -7.5774  -6.9990  -6.9977  -6.8086  -6.8063
    -6.8028  -6.7993  -6.7948  -6.7934  -6.7716  -6.7666  -6.7634  -6.7621
    -6.6907  -6.6889  -5.4676  -5.3055  -5.2919  -5.2531  -5.2452  -5.1263
    -5.0314  -4.8805  -4.8626  -4.7281  -4.6451  -4.6410  -4.6300  -4.6249
    -4.6160  -4.5986  -3.6948  -3.6926  -3.1551  -3.1540  -2.6448  -2.6411
    -2.6304  -2.6259  -2.6214  -2.6176  -2.6083  -2.6060  -2.5745  -2.5730
    -2.5659  -2.5626  -0.5772  -0.5488  -0.4960  -0.4597  -0.3738  -0.3127
    -0.2858  -0.2151  -0.1989  -0.1172  -0.0656  -0.0243   0.0878   0.0985
     0.2071   0.2230   0.3088   0.3418   0.4001   0.4313   0.4373   0.4720
     0.5384   0.5393   0.5858   0.5884   0.7291   0.7356   0.7565   0.7803
     0.8237   0.8556   0.9068   0.9308   0.9331   0.9431   0.9979   1.0235
     1.0670   1.0781   1.1352   1.1458   1.1864   1.2082   1.2731   1.2746
     1.3267   1.3372   1.3661   1.3679   1.4198   1.4296   1.4612   1.4715
     1.5087   1.5193   1.5479   1.5684   1.5933   1.6022   1.6103   1.6293
     1.6756   1.6812   1.7192   1.7466   1.7721   1.7954   1.7977   1.8262
     1.8512   1.8530   1.9405   1.9653

          k = 0.1250-0.3730-0.3614 (296563 PWs)   bands (ev):

   -17.7353 -17.7336 -17.3612 -17.3607 -17.3583 -17.3519 -17.2761 -17.2732
   -15.5922 -15.5915 -14.0953 -14.0948 -14.0913 -14.0894 -14.0816 -14.0804
   -14.0783 -14.0769 -14.0748 -14.0745 -14.0724 -14.0710 -14.0587 -14.0576
   -14.0574 -14.0569 -14.0564 -14.0561 -14.0548 -14.0524 -14.0514 -14.0512
   -14.0500 -14.0476 -14.0413 -14.0399 -14.0389 -14.0387 -14.0375 -14.0368
   -14.0367 -14.0364 -14.0358 -14.0352 -14.0349 -14.0324 -14.0217 -14.0201
   -14.0190 -14.0190 -10.3107 -10.3091 -10.2942 -10.2907 -10.2866 -10.2805
    -9.5868  -9.5863  -9.4291  -9.3918  -9.3296  -9.2988  -9.2922  -9.2716
    -9.2425  -9.2345  -9.0567  -9.0444  -9.0154  -9.0003  -8.9762  -8.9701
    -8.9666  -8.9484  -8.9368  -8.9240  -8.8948  -8.8765  -8.8414  -8.8145
    -8.7937  -8.7813  -7.5794  -7.5775  -6.9990  -6.9977  -6.8086  -6.8065
    -6.8020  -6.7995  -6.7961  -6.7926  -6.7715  -6.7665  -6.7630  -6.7626
    -6.6907  -6.6889  -5.4675  -5.3069  -5.2907  -5.2532  -5.2451  -5.1264
    -5.0313  -4.8813  -4.8617  -4.7283  -4.6451  -4.6411  -4.6299  -4.6250
    -4.6158  -4.5987  -3.6948  -3.6926  -3.1551  -3.1540  -2.6447  -2.6408
    -2.6307  -2.6258  -2.6223  -2.6170  -2.6087  -2.6056  -2.5750  -2.5725
    -2.5664  -2.5621  -0.5783  -0.5458  -0.4995  -0.4574  -0.3732  -0.3127
    -0.2851  -0.2153  -0.1998  -0.1187  -0.0669  -0.0255   0.0890   0.0972
     0.2073   0.2250   0.3120   0.3434   0.3994   0.4292   0.4356   0.4739
     0.5378   0.5393   0.5852   0.5894   0.7279   0.7360   0.7564   0.7809
     0.8245   0.8579   0.9034   0.9296   0.9304   0.9455   0.9987   1.0266
     1.0648   1.0789   1.1340   1.1455   1.1856   1.2101   1.2713   1.2746
     1.3284   1.3384   1.3646   1.3676   1.4165   1.4313   1.4594   1.4730
     1.5088   1.5203   1.5479   1.5687   1.5929   1.6023   1.6098   1.6285
     1.6784   1.6800   1.7198   1.7440   1.7714   1.7947   1.8005   1.8273
     1.8501   1.8533   1.9406   1.9655

          k =-0.3750-0.1243 0.1205 (296558 PWs)   bands (ev):

   -17.7353 -17.7336 -17.3612 -17.3607 -17.3583 -17.3519 -17.2761 -17.2732
   -15.5922 -15.5915 -14.0978 -14.0970 -14.0889 -14.0874 -14.0839 -14.0827
   -14.0766 -14.0755 -14.0744 -14.0733 -14.0720 -14.0702 -14.0592 -14.0576
   -14.0575 -14.0571 -14.0565 -14.0562 -14.0548 -14.0524 -14.0514 -14.0512
   -14.0500 -14.0476 -14.0414 -14.0400 -14.0389 -14.0387 -14.0375 -14.0367
   -14.0367 -14.0364 -14.0358 -14.0351 -14.0349 -14.0324 -14.0217 -14.0201
   -14.0190 -14.0190 -10.3103 -10.3079 -10.2974 -10.2932 -10.2848 -10.2790
    -9.5841  -9.5809  -9.4665  -9.4277  -9.3225  -9.2797  -9.2664  -9.2213
    -9.1787  -9.1737  -9.1309  -9.1254  -9.0590  -9.0308  -8.9862  -8.9739
    -8.9503  -8.9427  -8.9335  -8.9320  -8.8570  -8.8461  -8.8340  -8.8100
    -8.8043  -8.7865  -7.5797  -7.5778  -6.9991  -6.9978  -6.8110  -6.8082
    -6.8034  -6.8018  -6.7942  -6.7933  -6.7722  -6.7647  -6.7630  -6.7591
    -6.6890  -6.6869  -5.5719  -5.3877  -5.2542  -5.2512  -5.1661  -5.1416
    -4.9908  -4.9629  -4.7668  -4.6730  -4.6472  -4.6413  -4.6276  -4.6217
    -4.6143  -4.5358  -3.6947  -3.6925  -3.1552  -3.1539  -2.6557  -2.6479
    -2.6339  -2.6276  -2.6182  -2.6163  -2.6100  -2.6091  -2.5702  -2.5682
    -2.5634  -2.5612  -0.7227  -0.7065  -0.6185  -0.5813  -0.5668  -0.5032
    -0.3907  -0.3430  -0.2650  -0.2166  -0.1244  -0.0545   0.0641   0.1531
     0.2258   0.3685   0.4134   0.4393   0.4464   0.5169   0.5179   0.5681
     0.5965   0.6266   0.6731   0.7253   0.7632   0.7813   0.8430   0.8539
     0.8835   0.9668   0.9985   1.0079   1.0431   1.0845   1.1112   1.1121
     1.1476   1.1600   1.1854   1.1876   1.2020   1.2223   1.2259   1.2610
     1.2970   1.3099   1.3223   1.3428   1.3558   1.3644   1.3958   1.4076
     1.4474   1.4485   1.5238   1.5422   1.5665   1.5732   1.6291   1.6547
     1.6826   1.6840   1.7107   1.7589   1.7827   1.8374   1.8395   1.8600
     1.8893   1.9005   1.9671   2.0447

          k =-0.3750 0.1243-0.1205 (296558 PWs)   bands (ev):

   -17.7353 -17.7336 -17.3612 -17.3607 -17.3583 -17.3519 -17.2761 -17.2732
   -15.5922 -15.5915 -14.0978 -14.0970 -14.0889 -14.0874 -14.0839 -14.0827
   -14.0766 -14.0755 -14.0744 -14.0733 -14.0720 -14.0702 -14.0592 -14.0576
   -14.0575 -14.0571 -14.0565 -14.0562 -14.0548 -14.0524 -14.0514 -14.0512
   -14.0500 -14.0476 -14.0414 -14.0400 -14.0389 -14.0387 -14.0375 -14.0367
   -14.0367 -14.0364 -14.0358 -14.0351 -14.0349 -14.0324 -14.0217 -14.0201
   -14.0190 -14.0190 -10.3108 -10.3087 -10.2966 -10.2927 -10.2850 -10.2788
    -9.5828  -9.5819  -9.4732  -9.4206  -9.3131  -9.2927  -9.2645  -9.2210
    -9.1829  -9.1668  -9.1373  -9.1212  -9.0637  -9.0258  -8.9881  -8.9717
    -8.9485  -8.9383  -8.9366  -8.9324  -8.8636  -8.8484  -8.8325  -8.8093
    -8.8040  -8.7834  -7.5801  -7.5773  -6.9992  -6.9979  -6.8105  -6.8086
    -6.8034  -6.8018  -6.7957  -6.7916  -6.7722  -6.7648  -6.7627  -6.7598
    -6.6888  -6.6870  -5.5722  -5.3873  -5.2544  -5.2514  -5.1662  -5.1404
    -4.9908  -4.9644  -4.7711  -4.6665  -4.6497  -4.6403  -4.6275  -4.6224
    -4.6096  -4.5402  -3.6946  -3.6923  -3.1552  -3.1539  -2.6560  -2.6477
    -2.6315  -2.6260  -2.6204  -2.6179  -2.6113  -2.6086  -2.5701  -2.5678
    -2.5632  -2.5607  -0.7256  -0.7049  -0.6137  -0.5889  -0.5748  -0.4980
    -0.3799  -0.3467  -0.2633  -0.2271  -0.1170  -0.0454   0.0664   0.1539
     0.2277   0.3633   0.4220   0.4307   0.4401   0.5067   0.5244   0.5646
     0.6078   0.6151   0.6666   0.7319   0.7586   0.7876   0.8409   0.8427
     0.8900   0.9498   0.9835   1.0285   1.0578   1.0606   1.1066   1.1244
     1.1441   1.1589   1.1767   1.1846   1.2131   1.2248   1.2520   1.2745
     1.2913   1.3159   1.3227   1.3300   1.3508   1.3628   1.3999   1.4228
     1.4362   1.4586   1.5316   1.5465   1.5627   1.5863   1.6162   1.6472
     1.6602   1.6893   1.7224   1.7560   1.7725   1.8388   1.8415   1.8688
     1.8750   1.9117   1.9532   2.0563

          k = 0.3750-0.1243-0.1205 (296558 PWs)   bands (ev):

   -17.7353 -17.7336 -17.3612 -17.3607 -17.3583 -17.3519 -17.2761 -17.2732
   -15.5922 -15.5915 -14.0978 -14.0970 -14.0889 -14.0874 -14.0839 -14.0827
   -14.0766 -14.0755 -14.0744 -14.0733 -14.0720 -14.0702 -14.0592 -14.0576
   -14.0575 -14.0571 -14.0565 -14.0562 -14.0548 -14.0524 -14.0514 -14.0512
   -14.0500 -14.0476 -14.0414 -14.0400 -14.0389 -14.0387 -14.0375 -14.0367
   -14.0367 -14.0364 -14.0358 -14.0351 -14.0349 -14.0324 -14.0217 -14.0201
   -14.0190 -14.0190 -10.3108 -10.3087 -10.2966 -10.2927 -10.2850 -10.2788
    -9.5828  -9.5818  -9.4733  -9.4206  -9.3131  -9.2924  -9.2636  -9.2223
    -9.1850  -9.1638  -9.1365  -9.1231  -9.0633  -9.0249  -8.9886  -8.9726
    -8.9431  -8.9421  -8.9416  -8.9285  -8.8631  -8.8488  -8.8325  -8.8091
    -8.8043  -8.7834  -7.5801  -7.5773  -6.9992  -6.9979  -6.8104  -6.8088
    -6.8042  -6.8010  -6.7948  -6.7925  -6.7721  -6.7648  -6.7626  -6.7599
    -6.6888  -6.6870  -5.5722  -5.3873  -5.2544  -5.2514  -5.1664  -5.1403
    -4.9908  -4.9643  -4.7708  -4.6667  -4.6498  -4.6403  -4.6275  -4.6223
    -4.6097  -4.5401  -3.6946  -3.6923  -3.1552  -3.1539  -2.6559  -2.6477
    -2.6318  -2.6264  -2.6199  -2.6180  -2.6105  -2.6093  -2.5703  -2.5677
    -2.5639  -2.5600  -0.7256  -0.7046  -0.6136  -0.5909  -0.5727  -0.4982
    -0.3799  -0.3469  -0.2637  -0.2266  -0.1180  -0.0447   0.0658   0.1540
     0.2280   0.3637   0.4207   0.4307   0.4420   0.5063   0.5231   0.5663
     0.6075   0.6144   0.6661   0.7317   0.7596   0.7879   0.8410   0.8435
     0.8898   0.9512   0.9813   1.0259   1.0567   1.0624   1.1088   1.1223
     1.1462   1.1592   1.1790   1.1861   1.2139   1.2227   1.2550   1.2764
     1.2913   1.3095   1.3225   1.3331   1.3480   1.3608   1.3985   1.4226
     1.4357   1.4595   1.5305   1.5466   1.5626   1.5850   1.6169   1.6461
     1.6632   1.6904   1.7218   1.7555   1.7713   1.8398   1.8432   1.8682
     1.8762   1.9099   1.9537   2.0569

          k =-0.3750-0.1243 0.3614 (296555 PWs)   bands (ev):

   -17.7353 -17.7336 -17.3612 -17.3607 -17.3583 -17.3519 -17.2761 -17.2732
   -15.5922 -15.5915 -14.0954 -14.0949 -14.0914 -14.0895 -14.0816 -14.0802
   -14.0781 -14.0767 -14.0746 -14.0745 -14.0723 -14.0706 -14.0592 -14.0576
   -14.0576 -14.0571 -14.0565 -14.0562 -14.0549 -14.0524 -14.0514 -14.0512
   -14.0501 -14.0476 -14.0413 -14.0399 -14.0389 -14.0387 -14.0375 -14.0367
   -14.0367 -14.0364 -14.0358 -14.0351 -14.0349 -14.0324 -14.0217 -14.0201
   -14.0190 -14.0190 -10.3100 -10.3079 -10.2974 -10.2932 -10.2848 -10.2790
    -9.5807  -9.5797  -9.4358  -9.3958  -9.3694  -9.3249  -9.2814  -9.2622
    -9.2098  -9.2017  -9.0535  -9.0461  -9.0236  -9.0070  -8.9966  -8.9837
    -8.9648  -8.9636  -8.9146  -8.9115  -8.8795  -8.8644  -8.8388  -8.8209
    -8.8014  -8.7929  -7.5799  -7.5781  -6.9992  -6.9979  -6.8101  -6.8083
    -6.8028  -6.7989  -6.7943  -6.7915  -6.7720  -6.7663  -6.7619  -6.7597
    -6.6907  -6.6889  -5.4585  -5.2993  -5.2610  -5.2529  -5.2479  -5.0999
    -5.0601  -4.8984  -4.8867  -4.7445  -4.6432  -4.6370  -4.6324  -4.6246
    -4.6185  -4.6015  -3.6949  -3.6928  -3.1551  -3.1540  -2.6469  -2.6449
    -2.6351  -2.6260  -2.6238  -2.6187  -2.6092  -2.6070  -2.5707  -2.5680
    -2.5638  -2.5610  -0.5469  -0.5123  -0.4517  -0.4417  -0.3289  -0.3034
    -0.2775  -0.2346  -0.1968  -0.1732  -0.0760  -0.0532   0.0511   0.0713
     0.2495   0.2659   0.3250   0.3303   0.3855   0.4099   0.4635   0.4795
     0.4930   0.5356   0.5895   0.6173   0.7342   0.7383   0.7989   0.8196
     0.8614   0.8636   0.9424   0.9491   0.9783   0.9881   0.9994   1.0185
     1.0747   1.0861   1.1089   1.1148   1.1666   1.1832   1.2327   1.2555
     1.3215   1.3230   1.3425   1.3575   1.3814   1.3890   1.4335   1.4382
     1.5058   1.5293   1.5319   1.5576   1.5791   1.5826   1.6162   1.6390
     1.6671   1.6799   1.6969   1.7302   1.7806   1.7862   1.8116   1.8254
     1.8413   1.8482   1.9151   1.9369

          k =-0.3750 0.1243-0.3614 (296555 PWs)   bands (ev):

   -17.7353 -17.7336 -17.3612 -17.3607 -17.3583 -17.3519 -17.2761 -17.2732
   -15.5922 -15.5915 -14.0954 -14.0949 -14.0914 -14.0895 -14.0816 -14.0802
   -14.0781 -14.0767 -14.0746 -14.0745 -14.0723 -14.0706 -14.0592 -14.0576
   -14.0575 -14.0571 -14.0565 -14.0562 -14.0549 -14.0524 -14.0514 -14.0512
   -14.0501 -14.0476 -14.0413 -14.0399 -14.0389 -14.0387 -14.0375 -14.0367
   -14.0367 -14.0364 -14.0358 -14.0351 -14.0349 -14.0324 -14.0217 -14.0201
   -14.0190 -14.0190 -10.3105 -10.3087 -10.2966 -10.2927 -10.2849 -10.2790
    -9.5802  -9.5797  -9.4414  -9.3909  -9.3716  -9.3209  -9.2731  -9.2697
    -9.2081  -9.2056  -9.0546  -9.0474  -9.0225  -9.0071  -8.9962  -8.9852
    -8.9651  -8.9594  -8.9198  -8.9066  -8.8815  -8.8600  -8.8447  -8.8254
    -8.7980  -8.7897  -7.5800  -7.5780  -6.9992  -6.9980  -6.8101  -6.8082
    -6.8021  -6.7993  -6.7950  -6.7908  -6.7720  -6.7665  -6.7617  -6.7600
    -6.6907  -6.6889  -5.4585  -5.2983  -5.2622  -5.2529  -5.2475  -5.1005
    -5.0605  -4.8989  -4.8875  -4.7400  -4.6450  -4.6381  -4.6326  -4.6250
    -4.6161  -4.6028  -3.6948  -3.6926  -3.1551  -3.1540  -2.6477  -2.6441
    -2.6321  -2.6282  -2.6229  -2.6186  -2.6109  -2.6080  -2.5707  -2.5673
    -2.5634  -2.5613  -0.5493  -0.5185  -0.4483  -0.4448  -0.3225  -0.2978
    -0.2768  -0.2447  -0.1939  -0.1776  -0.0635  -0.0513   0.0592   0.0693
     0.2424   0.2720   0.3224   0.3322   0.3893   0.3987   0.4586   0.4710
     0.4998   0.5272   0.6022   0.6075   0.7331   0.7450   0.8064   0.8252
     0.8558   0.8859   0.9079   0.9129   0.9532   0.9836   1.0266   1.0336
     1.0739   1.0841   1.0950   1.1138   1.1899   1.2074   1.2397   1.2493
     1.3254   1.3272   1.3458   1.3493   1.3838   1.3911   1.4359   1.4388
     1.5105   1.5237   1.5285   1.5381   1.5975   1.6067   1.6243   1.6391
     1.6622   1.6640   1.7050   1.7426   1.7730   1.7765   1.8018   1.8108
     1.8248   1.8377   1.9305   1.9541

          k = 0.3750-0.1243-0.3614 (296555 PWs)   bands (ev):

   -17.7353 -17.7336 -17.3612 -17.3607 -17.3583 -17.3519 -17.2761 -17.2732
   -15.5922 -15.5915 -14.0954 -14.0949 -14.0914 -14.0895 -14.0816 -14.0802
   -14.0781 -14.0767 -14.0746 -14.0745 -14.0723 -14.0706 -14.0592 -14.0576
   -14.0575 -14.0571 -14.0565 -14.0562 -14.0549 -14.0524 -14.0514 -14.0512
   -14.0501 -14.0476 -14.0413 -14.0399 -14.0389 -14.0387 -14.0375 -14.0367
   -14.0367 -14.0364 -14.0358 -14.0351 -14.0349 -14.0324 -14.0217 -14.0201
   -14.0190 -14.0190 -10.3105 -10.3087 -10.2966 -10.2927 -10.2849 -10.2790
    -9.5804  -9.5794  -9.4417  -9.3909  -9.3714  -9.3206  -9.2727  -9.2702
    -9.2096  -9.2043  -9.0553  -9.0469  -9.0218  -9.0030  -8.9995  -8.9873
    -8.9623  -8.9612  -8.9225  -8.9032  -8.8821  -8.8600  -8.8450  -8.8253
    -8.7981  -8.7896  -7.5800  -7.5780  -6.9992  -6.9980  -6.8101  -6.8084
    -6.8028  -6.7987  -6.7936  -6.7921  -6.7720  -6.7665  -6.7614  -6.7603
    -6.6907  -6.6889  -5.4584  -5.2989  -5.2618  -5.2530  -5.2473  -5.1007
    -5.0607  -4.8999  -4.8859  -4.7405  -4.6451  -4.6379  -4.6327  -4.6249
    -4.6163  -4.6026  -3.6948  -3.6926  -3.1551  -3.1540  -2.6474  -2.6441
    -2.6332  -2.6271  -2.6233  -2.6188  -2.6102  -2.6083  -2.5709  -2.5671
    -2.5642  -2.5605  -0.5500  -0.5169  -0.4493  -0.4439  -0.3234  -0.2978
    -0.2760  -0.2425  -0.1943  -0.1808  -0.0658  -0.0501   0.0578   0.0704
     0.2451   0.2733   0.3218   0.3327   0.3905   0.3964   0.4569   0.4708
     0.4997   0.5298   0.6027   0.6060   0.7340   0.7452   0.8069   0.8242
     0.8563   0.8863   0.9052   0.9119   0.9527   0.9858   1.0286   1.0336
     1.0741   1.0839   1.0969   1.1112   1.1935   1.2056   1.2397   1.2500
     1.3212   1.3287   1.3427   1.3505   1.3836   1.3909   1.4361   1.4379
     1.5121   1.5238   1.5297   1.5375   1.5942   1.6051   1.6230   1.6412
     1.6631   1.6670   1.7046   1.7442   1.7707   1.7743   1.8041   1.8139
     1.8268   1.8333   1.9308   1.9543

          k =-0.3750-0.3730 0.1205 (296610 PWs)   bands (ev):

   -17.7353 -17.7336 -17.3612 -17.3607 -17.3583 -17.3519 -17.2761 -17.2732
   -15.5922 -15.5915 -14.0977 -14.0968 -14.0887 -14.0871 -14.0836 -14.0826
   -14.0756 -14.0746 -14.0741 -14.0737 -14.0724 -14.0706 -14.0595 -14.0582
   -14.0576 -14.0573 -14.0567 -14.0566 -14.0550 -14.0525 -14.0515 -14.0513
   -14.0501 -14.0476 -14.0414 -14.0400 -14.0389 -14.0387 -14.0375 -14.0367
   -14.0367 -14.0364 -14.0358 -14.0351 -14.0349 -14.0324 -14.0217 -14.0201
   -14.0190 -14.0190 -10.3100 -10.3079 -10.2954 -10.2912 -10.2873 -10.2807
[...]
     0.2373   0.2841   0.3255   0.3354   0.3528   0.3712   0.4051   0.4283
     0.4779   0.5030   0.5503   0.5518   0.7423   0.7837   0.8124   0.8256
     0.8547   0.8734   0.9003   0.9291   0.9563   0.9578   1.0028   1.0165
     1.0576   1.0684   1.0880   1.1112   1.1796   1.1937   1.2316   1.2434
     1.2665   1.2862   1.3203   1.3355   1.4033   1.4042   1.4237   1.4517
     1.4720   1.4845   1.5305   1.5343   1.5518   1.5746   1.6161   1.6339
     1.6746   1.6994   1.7279   1.7542   1.8198   1.8292   1.8461   1.8598
     1.8974   1.9165   1.9662   1.9874

     highest occupied level (ev):     2.2523

!    total energy              =  -16545.24550670 Ry
     Harris-Foulkes estimate   =  -16545.24550670 Ry
     estimated scf accuracy    <          3.7E-10 Ry

     total all-electron energy =   -677464.512376 Ry

     The total energy is the sum of the following terms:

     one-electron contribution =    -822.52970218 Ry
     hartree contribution      =     603.43549519 Ry
     xc contribution           =    -765.77530481 Ry
     ewald contribution        =   -1189.57780553 Ry
     DFT-D3 Dispersion         =      -0.65381410 Ry
     one-center paw contrib.   =  -14370.14437528 Ry

     convergence has been achieved in  10 iterations

     Forces acting on atoms (cartesian axes, Ry/au):

     atom    1 type  1   force =    -0.00007962   -0.00015631    0.00084626
     atom    2 type  1   force =    -0.00027689   -0.00024554    0.00023051
     atom    3 type  1   force =    -0.00019656    0.00035869    0.00010802
     atom    4 type  1   force =    -0.00036036    0.00035187   -0.00030537
     atom    5 type  1   force =     0.00002084    0.00058069   -0.00023619
     atom    6 type  1   force =    -0.00040856    0.00022219    0.00025698
     atom    7 type  1   force =    -0.00035880   -0.00005780    0.00006013
     atom    8 type  1   force =     0.00003902    0.00009099    0.00053584
     atom    9 type  2   force =     0.00040388   -0.00065156   -0.00002839
     atom   10 type  2   force =     0.00039465    0.00013931    0.00051035
     atom   11 type  2   force =     0.00034771   -0.00039837   -0.00113729
     atom   12 type  2   force =     0.00084979   -0.00073244   -0.00006647
     atom   13 type  2   force =     0.00052111    0.00036537   -0.00032369
     atom   14 type  2   force =     0.00017968   -0.00022542   -0.00034544
     atom   15 type  2   force =    -0.00005110    0.00062507    0.00010718
     atom   16 type  2   force =    -0.00066217   -0.00036103   -0.00034805
     atom   17 type  2   force =     0.00005866    0.00013778   -0.00035248
     atom   18 type  2   force =     0.00021752    0.00027581    0.00005034
     atom   19 type  2   force =    -0.00047649   -0.00032930    0.00039168
     atom   20 type  2   force =    -0.00072538   -0.00030259    0.00035740
     atom   21 type  2   force =    -0.00031026    0.00035448    0.00015926
     atom   22 type  2   force =    -0.00061164   -0.00067972    0.00039335
     atom   23 type  2   force =    -0.00069327   -0.00015191   -0.00028912
     atom   24 type  2   force =    -0.00013554    0.00049781    0.00023137
     atom   25 type  2   force =    -0.00065174   -0.00013333   -0.00037922
     atom   26 type  2   force =     0.00009855    0.00016247   -0.00002093
     atom   27 type  2   force =     0.00064221   -0.00069371   -0.00005270
     atom   28 type  2   force =     0.00063823   -0.00004845   -0.00033254
     atom   29 type  2   force =     0.00026656    0.00001096   -0.00025192
     atom   30 type  2   force =     0.00001171   -0.00073372   -0.00002403
     atom   31 type  2   force =     0.00052158   -0.00013775    0.00051809
     atom   32 type  2   force =     0.00031358   -0.00038189   -0.00053112
     atom   33 type  3   force =     0.00128940   -0.00038681   -0.00000764
     atom   34 type  3   force =    -0.00021791   -0.00021004    0.00023800
     atom   35 type  3   force =    -0.00020766   -0.00018013    0.00018790
     atom   36 type  3   force =    -0.00049206   -0.00030326   -0.00046250
     atom   37 type  3   force =    -0.00015738   -0.00016889   -0.00010368
     atom   38 type  3   force =    -0.00015432    0.00010503    0.00052160
     atom   39 type  3   force =     0.00016427   -0.00017344   -0.00015183
     atom   40 type  3   force =     0.00249751   -0.00076366    0.00008448
     atom   41 type  4   force =     0.00047512    0.00009169    0.00003933
     atom   42 type  4   force =     0.00092706   -0.00034680    0.00000152
     atom   43 type  4   force =     0.00048878    0.00025550   -0.00052597
     atom   44 type  4   force =    -0.00008126    0.00091509    0.00002382
     atom   45 type  4   force =     0.00050313    0.00059877    0.00073101
     atom   46 type  4   force =     0.00046604    0.00043552    0.00026968
     atom   47 type  4   force =     0.00020257    0.00075523    0.00047363
     atom   48 type  4   force =    -0.00011106   -0.00012642   -0.00028338
     atom   49 type  4   force =    -0.00090946   -0.00096466    0.00017301
     atom   50 type  4   force =    -0.00053161    0.00162034    0.00012356
     atom   51 type  5   force =    -0.00200145    0.00057954   -0.00001367
     atom   52 type  5   force =    -0.00041514    0.00009208    0.00005193
     atom   53 type  5   force =     0.00077802   -0.00003206    0.00002409
     atom   54 type  5   force =    -0.00123289   -0.00149279   -0.00005235
     atom   55 type  5   force =     0.00069451    0.00094723    0.00007414
     atom   56 type  5   force =    -0.00019419    0.00011481    0.00026237
     atom   57 type  5   force =    -0.00005566    0.00050789    0.00013626
     atom   58 type  5   force =     0.00021252    0.00100291   -0.00080141
     atom   59 type  5   force =    -0.00025262   -0.00088471    0.00023284
     atom   60 type  5   force =    -0.00018069   -0.00012415    0.00027575
     atom   61 type  5   force =     0.00072895   -0.00035345    0.00001047
     atom   62 type  5   force =    -0.00015229    0.00013306    0.00043675
     atom   63 type  5   force =     0.00036536    0.00068769    0.00006895
     atom   64 type  5   force =    -0.00032842    0.00052113   -0.00079804
     atom   65 type  5   force =    -0.00009282   -0.00051823    0.00026678
     atom   66 type  5   force =    -0.00040957   -0.00049508    0.00027644
     atom   67 type  5   force =     0.00000197   -0.00006169   -0.00026273
     atom   68 type  5   force =     0.00032555    0.00004978    0.00053967
     atom   69 type  5   force =     0.00050474   -0.00002946   -0.00095869
     atom   70 type  5   force =    -0.00028167    0.00046134   -0.00014510
     atom   71 type  5   force =    -0.00033666    0.00000972    0.00095598
     atom   72 type  5   force =    -0.00026656   -0.00002769   -0.00072222
     atom   73 type  5   force =     0.00006369   -0.00044506    0.00001508
     atom   74 type  5   force =     0.00063021    0.00018543    0.00053469
     atom   75 type  5   force =     0.00059063   -0.00017186   -0.00050062
     atom   76 type  5   force =    -0.00032487   -0.00008608    0.00002492
     atom   77 type  5   force =    -0.00080662    0.00023169    0.00006308
     atom   78 type  5   force =    -0.00073801   -0.00015562   -0.00002939
     atom   79 type  5   force =     0.00042713    0.00003798   -0.00022428
     atom   80 type  5   force =     0.00015255    0.00092747    0.00027928
     atom   81 type  5   force =     0.00028946    0.00099459    0.00086529
     atom   82 type  5   force =    -0.00017600   -0.00060117   -0.00028727
     atom   83 type  5   force =    -0.00014320    0.00082705    0.00020748
     atom   84 type  5   force =     0.00026298   -0.00085048   -0.00133433
     atom   85 type  5   force =    -0.00127078   -0.00115848   -0.00049354
     atom   86 type  5   force =    -0.00032630   -0.00055417   -0.00002266
     atom   87 type  5   force =    -0.00049783    0.00142523   -0.00035788
     atom   88 type  5   force =     0.00084258    0.00018560   -0.00058119
     atom   89 type  5   force =    -0.00098450    0.00034963    0.00033284
     atom   90 type  5   force =     0.00024653   -0.00113968    0.00114237
     atom   91 type  5   force =     0.00116374    0.00031359   -0.00023833
     atom   92 type  5   force =    -0.00187111    0.00068207   -0.00001957
     atom   93 type  5   force =    -0.00019998   -0.00005274   -0.00000388
     atom   94 type  5   force =     0.00045035    0.00066434   -0.00014164
     atom   95 type  5   force =    -0.00034519   -0.00109804   -0.00010472
     atom   96 type  5   force =     0.00147546   -0.00050488   -0.00004826

     Total force =     0.009301     Total SCF correction =     0.000072


     Computing stress (Cartesian axis) and pressure

          total   stress  (Ry/bohr**3)                   (kbar)     P=   -0.11
   0.00000047   0.00000745   0.00000024          0.07      1.10      0.04
   0.00000745   0.00000016  -0.00000000          1.10      0.02     -0.00
   0.00000024  -0.00000000  -0.00000287          0.04     -0.00     -0.42


     number of scf cycles    =  26
     number of bfgs steps    =  25

     enthalpy old            =  -16545.2453823756 Ry
     enthalpy new            =  -16545.2455066970 Ry

     CASE: enthalpy_new < enthalpy_old

     new trust radius        =       0.0418259574 bohr
     new conv_thr            =       0.0000000012 Ry

     new unit-cell volume =  13311.24728 a.u.^3 (  1972.52331 Ang^3 )
     density =      4.20232 g/cm^3

CELL_PARAMETERS (angstrom)
  12.332079873   0.000000000   0.000000000
   0.000000000  12.399560801   0.000000000
   0.000000000   0.000000000  12.899697112

ATOMIC_POSITIONS (crystal)
Pb       0.000986080  -0.007530636   0.002039879
Pb       0.001541044  -0.007054611   0.502963091
Pb      -0.001150796   0.494979160   0.001173865
Pb      -0.001280084   0.495018757   0.505554959
Pb       0.498405999  -0.005243801   0.005533206
Pb       0.498895116  -0.004972746   0.501094375
Pb       0.501543981   0.492533368   0.003267856
Pb       0.500973572   0.492441601   0.502419882
I        0.248337330   0.073758288   0.004446446
I       -0.064986236   0.238970045  -0.023104485
I       -0.020229372   0.014036650   0.254120296
I        0.247855295   0.074594320   0.503322194
I       -0.065698288   0.238881939   0.527959520
I        0.002408197  -0.017601091   0.753600583
I        0.249163274   0.436322562   0.016053320
I        0.075331014   0.739293194  -0.014964212
I        0.008718113   0.515237530   0.253273339
I        0.249237026   0.437021071   0.490288245
I        0.074822325   0.739526509   0.520884248
I        0.024767694   0.477571290   0.752931787
I        0.749440554  -0.063110745  -0.009750613
I        0.575115753   0.239797446   0.020855237
I        0.524672280  -0.022513356   0.253335822
I        0.749179597  -0.063329232   0.516046745
I        0.575266845   0.239274631   0.485136209
I        0.508617400   0.015142916   0.753298254
I        0.748016837   0.574440846   0.003168317
I        0.434132247   0.739275373   0.027993016
I        0.502209837   0.482189757   0.253440092
I        0.748482709   0.573856631   0.504294006
I        0.434835245   0.739060094   0.477037976
I        0.479966113   0.513954337   0.753628107
C        0.254642571   0.286003572   0.253171119
C        0.291842306   0.274360851   0.753534665
C        0.232829102   0.796845304   0.252810395
C        0.289020194   0.796676306   0.752490086
C        0.788912563   0.296677943   0.252447499
C        0.732853373   0.296721701   0.752720839
C        0.791712207   0.774359934   0.253664737
C        0.754602318   0.785876950   0.753061368
N        0.153629923   0.252561209   0.253108607
N        0.341373479   0.224441351   0.253236293
N        0.191610222   0.206480348   0.754260992
N        0.260823965   0.679470291   0.252445614
N        0.235577046   0.688455489   0.752864054
N        0.735492888   0.188513766   0.252988204
N        0.760816337   0.179402096   0.752303132
N        0.691818076   0.706262242   0.254101592
N        0.653632001   0.752527893   0.753019645
N        0.841370436   0.724294663   0.753042054
H        0.269033544   0.372618988   0.253178685
H        0.130978625   0.173177299   0.253084265
H        0.093488241   0.309278512   0.253173009
H        0.339611013   0.142366176   0.253271057
H        0.415384689   0.260881971   0.253156271
H        0.188737429   0.157433107   0.688811297
H        0.122612161   0.253835570   0.754880052
H        0.189700405   0.157278242   0.819663330
H        0.290665601   0.324980787   0.684086801
H        0.362450055   0.220891529   0.752588417
H        0.291798387   0.324447533   0.823353554
H        0.306633566   0.660952114   0.187219624
H        0.191840271   0.630952542   0.252429814
H        0.306807200   0.660470124   0.317405331
H        0.185057501   0.814450359   0.183403429
H        0.308430094   0.843202287   0.252021960
H        0.186460614   0.814206661   0.323154192
H        0.186677757   0.679484466   0.687566509
H        0.186560146   0.680090157   0.818179311
H        0.292877043   0.626868104   0.753215461
H        0.338810569   0.803042876   0.682496725
H        0.338877593   0.803493993   0.822381961
H        0.225959626   0.858883484   0.752326304
H        0.686545917   0.179330406   0.187782814
H        0.686471482   0.180186736   0.318258177
H        0.792882933   0.127005424   0.253385813
H        0.838849602   0.302928050   0.182582903
H        0.839007876   0.303675278   0.322128571
H        0.725738217   0.358755514   0.252324322
H        0.806581005   0.160587344   0.687164613
H        0.691885554   0.130790172   0.752062213
H        0.806735114   0.160648068   0.817292154
H        0.684822405   0.313992389   0.683431033
H        0.808312735   0.343215521   0.752226248
H        0.687082727   0.314427266   0.823318413
H        0.689230176   0.657442457   0.188618363
H        0.622563642   0.753250307   0.254719368
H        0.689703185   0.657040324   0.319401720
H        0.790847720   0.824756407   0.184146809
H        0.862601701   0.721344642   0.252633761
H        0.791228906   0.824199358   0.323541328
H        0.769184605   0.872448248   0.753123938
H        0.630926456   0.673112353   0.753059955
H        0.593574193   0.809280717   0.753446295
H        0.839561452   0.642246538   0.753154438
H        0.915174479   0.761123653   0.753248943



     Writing output data file 025FA2_vcrelax.save/
     NEW-OLD atomic charge density approx. for the potential
     extrapolated charge  407.96116, renormalised to  408.00000

     total cpu time spent up to now is   585999.0 secs

     Self-consistent Calculation

     iteration #  1     ecut=   120.00 Ry     beta= 0.70
     Davidson diagonalization with overlap
     ethr =  1.00E-06,  avg # of iterations =  4.0

     total cpu time spent up to now is   589460.4 secs

     total energy              =  -16545.24506110 Ry
     Harris-Foulkes estimate   =  -16545.29589295 Ry
     estimated scf accuracy    <       0.00206413 Ry

     iteration #  2     ecut=   120.00 Ry     beta= 0.70
     Davidson diagonalization with overlap
     ethr =  5.06E-07,  avg # of iterations =  2.4

     total cpu time spent up to now is   591189.5 secs

     total energy              =  -16545.24555602 Ry
     Harris-Foulkes estimate   =  -16545.24544192 Ry
     estimated scf accuracy    <       0.00023850 Ry

     iteration #  3     ecut=   120.00 Ry     beta= 0.70
     Davidson diagonalization with overlap
     ethr =  5.85E-08,  avg # of iterations =  4.2

     total cpu time spent up to now is   593218.7 secs

     total energy              =  -16545.24561572 Ry
     Harris-Foulkes estimate   =  -16545.24559928 Ry
     estimated scf accuracy    <       0.00010707 Ry

     iteration #  4     ecut=   120.00 Ry     beta= 0.70
     Davidson diagonalization with overlap
     ethr =  2.62E-08,  avg # of iterations =  4.4

     total cpu time spent up to now is   595194.6 secs

     total energy              =  -16545.24563508 Ry
     Harris-Foulkes estimate   =  -16545.24563639 Ry
     estimated scf accuracy    <       0.00006440 Ry

     iteration #  5     ecut=   120.00 Ry     beta= 0.70
     Davidson diagonalization with overlap
     ethr =  1.58E-08,  avg # of iterations =  4.4

     total cpu time spent up to now is   597124.5 secs

     total energy              =  -16545.24564371 Ry
     Harris-Foulkes estimate   =  -16545.24564917 Ry
     estimated scf accuracy    <       0.00001424 Ry

     iteration #  6     ecut=   120.00 Ry     beta= 0.70
     Davidson diagonalization with overlap
     ethr =  3.49E-09,  avg # of iterations =  4.2

     total cpu time spent up to now is   599020.3 secs

     total energy              =  -16545.24564641 Ry
     Harris-Foulkes estimate   =  -16545.24564672 Ry
     estimated scf accuracy    <       0.00000054 Ry

     iteration #  7     ecut=   120.00 Ry     beta= 0.70
     Davidson diagonalization with overlap

     Maximum CPU time exceeded

     max_seconds     =  600000.00
     elapsed seconds =  600037.44
     Calculation stopped in k-point loop, point #    15
     Calculation stopped in scf loop at iteration #     6

     Writing output data file 025FA2_vcrelax.save/

     init_run     :    970.52s CPU    979.48s WALL (       1 calls)
     electrons    : 553546.49s CPU 558750.00s WALL (      27 calls)
     update_pot   :    732.88s CPU    734.98s WALL (      26 calls)
     forces       :  15527.72s CPU  15587.33s WALL (      26 calls)
     stress       :  20049.62s CPU  20156.23s WALL (      26 calls)

     Called by init_run:
     wfcinit      :    946.12s CPU    954.33s WALL (       1 calls)
     potinit      :      7.85s CPU      7.91s WALL (       1 calls)
     hinit0       :     13.51s CPU     13.94s WALL (       1 calls)

     Called by electrons:
     c_bands      : 506098.17s CPU 510650.87s WALL (     257 calls)
     sum_band     :  46468.63s CPU  47087.41s WALL (     256 calls)
     v_of_rho     :     50.48s CPU     52.52s WALL (     265 calls)
     newd         :    568.04s CPU    625.55s WALL (     265 calls)
     PAW_pot      :    178.50s CPU    179.07s WALL (     291 calls)
     mix_rho      :      7.14s CPU      7.68s WALL (     256 calls)

     Called by c_bands:
     init_us_2    :    732.01s CPU    737.26s WALL (   18927 calls)
     cegterg      : 502146.01s CPU 506653.67s WALL (    8207 calls)

     Called by sum_band:
     sum_band:bec :     57.17s CPU     57.69s WALL (    9024 calls)
     addusdens    :    508.63s CPU    564.48s WALL (     256 calls)

     Called by *egterg:
     h_psi        : 233759.97s CPU 236950.72s WALL (   34921 calls)
     s_psi        :  88884.23s CPU  89106.98s WALL (   34921 calls)
     g_psi        :    117.27s CPU    118.54s WALL (   26682 calls)
     cdiaghg      :  13384.12s CPU  13425.15s WALL (   33481 calls)

     Called by h_psi:
     h_psi:pot    : 233603.14s CPU 236559.15s WALL (   34921 calls)
     h_psi:calbec :  98537.99s CPU  98851.91s WALL (   34921 calls)
     vloc_psi     :  46262.93s CPU  48682.71s WALL (   34921 calls)
     add_vuspsi   :  88801.74s CPU  89024.20s WALL (   34921 calls)

     General routines
     calbec       : 157251.44s CPU 157746.22s WALL (   48105 calls)
     fft          :     87.31s CPU     90.79s WALL (    3610 calls)
     ffts         :      2.76s CPU      2.97s WALL (     256 calls)
     fftw         :  49277.40s CPU  52076.00s WALL (10761886 calls)
     davcio       :      0.05s CPU     26.04s WALL (      44 calls)

     Parallel routines
     fft_scatt_xy :   6253.59s CPU   6313.28s WALL (10765752 calls)
     fft_scatt_yz :  16300.06s CPU  18815.40s WALL (10765752 calls)

     PWSCF        :   6d21h10m CPU   6d22h41m WALL


   This run was terminated on:   8: 2:40   8Aug2020            

=------------------------------------------------------------------------------=
   JOB DONE.
=------------------------------------------------------------------------------=
