
     Program PWSCF v.6.4 starts on  5Jul2020 at 19:33:50 

     This program is part of the open-source Quantum ESPRESSO suite
     for quantum simulation of materials; please cite
         "P. Giannozzi et al., J. Phys.:Condens. Matter 21 395502 (2009);
         "P. Giannozzi et al., J. Phys.:Condens. Matter 29 465901 (2017);
          URL http://www.quantum-espresso.org", 
     in publications or presentations arising from this work. More details at
     http://www.quantum-espresso.org/quote

     Parallel version (MPI), running on    32 processors

     MPI processes distributed on     1 nodes
     R & G space division:  proc/nbgrp/npool/nimage =      32
     Waiting for input...
     Reading input from standard input
     Message from routine read_cards :
     DEPRECATED: no units specified in CELL_PARAMETERS card

     Current dimensions of program PWSCF are:
     Max number of different atomic species (ntypx) = 10
     Max number of k-points (npk) =  40000
     Max angular momentum in pseudopotentials (lmaxx) =  3
               file Pb.pbe-dn-kjpaw_psl.1.0.0.UPF: wavefunction(s)  6S 6P 5D renormalized
               file I.pbe-n-kjpaw_psl.1.0.0.UPF: wavefunction(s)  5S renormalized
               file C.pbe-n-kjpaw_psl.1.0.0.UPF: wavefunction(s)  2S 2P renormalized
               file N.pbe-n-kjpaw_psl.1.0.0.UPF: wavefunction(s)  2S renormalized
               file H.pbe-kjpaw_psl.1.0.0.UPF: wavefunction(s)  1S renormalized

     --------------------------------------------
     Parameters for DFT-D3 Dispersion Correction:
     --------------------------------------------
       Reference C6 values for interpolation: 

         atom   Coordination number   C6
         H          0.912             6.05
         H          0.000            15.18
         C          0.000            98.23
         C          0.987            86.49
         C          1.998            58.72
         C          2.999            51.56
         C          3.984            36.41
         N          0.000            50.54
         N          0.994            44.25
         N          2.014            39.35
         N          2.990            31.16
         I          0.000           703.93
         I          0.997           717.00
         Pb         0.000          1477.63
         Pb         0.938          1266.00
         Pb         1.936          1088.91
         Pb         2.908          1048.37
         Pb         3.910           910.57

       Values used:

         atom   Coordination number  R0_AB[au]  C6      C8
         Pb         4.823            4.041    910.57 144158.36
         Pb         4.824            4.041    910.57 144158.36
         Pb         4.840            4.041    910.57 144158.33
         Pb         4.847            4.041    910.57 144158.32
         Pb         4.849            4.041    910.57 144158.32
         Pb         4.835            4.041    910.57 144158.34
         Pb         4.819            4.041    910.57 144158.37
         Pb         4.830            4.041    910.57 144158.35
         I          1.927            3.532    717.00  65855.99
         I          1.970            3.532    717.00  65856.00
         I          1.899            3.532    717.00  65855.99
         I          1.920            3.532    717.00  65855.99
         I          1.977            3.532    717.00  65856.00
         I          1.998            3.532    717.00  65856.00
         I          2.002            3.532    717.00  65856.00
         I          1.941            3.532    717.00  65855.99
         I          1.962            3.532    717.00  65856.00
         I          2.005            3.532    717.00  65856.00
         I          1.941            3.532    717.00  65855.99
         I          2.027            3.532    717.00  65856.00
         I          2.005            3.532    717.00  65856.00
         I          1.939            3.532    717.00  65855.99
         I          2.026            3.532    717.00  65856.00
         I          2.000            3.532    717.00  65856.00
         I          1.943            3.532    717.00  65855.99
         I          1.963            3.532    717.00  65856.00
         I          1.920            3.532    717.00  65855.99
         I          1.973            3.532    717.00  65856.00
         I          1.999            3.532    717.00  65856.00
         I          1.931            3.532    717.00  65855.99
         I          1.970            3.532    717.00  65856.00
         I          1.900            3.532    717.00  65855.99
         C          3.100            2.750     50.88   1471.61
         C          4.036            2.750     36.59   1058.34
         C          4.043            2.750     36.58   1058.07
         C          4.046            2.750     36.58   1057.95
         C          4.045            2.750     36.58   1057.98
         C          4.043            2.750     36.58   1058.08
         C          4.035            2.750     36.59   1058.39
         C          3.100            2.750     50.88   1471.59
         N          3.095            2.478     31.24    689.12
         N          3.102            2.478     31.23    689.04
         N          4.053            2.478     31.16    687.49
         N          4.049            2.478     31.16    687.49
         N          4.062            2.478     31.16    687.49
         N          4.062            2.478     31.16    687.49
         N          4.049            2.478     31.16    687.49
         N          4.052            2.478     31.16    687.49
         N          3.096            2.478     31.24    689.11
         N          3.102            2.478     31.23    689.03
         H          1.029            2.062      6.16     74.43
         H          1.038            2.062      6.15     74.35
         H          1.031            2.062      6.16     74.41
         H          1.028            2.062      6.16     74.43
         H          1.045            2.062      6.15     74.29
         H          1.053            2.062      6.14     74.23
         H          1.016            2.062      6.17     74.55
         H          1.060            2.062      6.14     74.18
         H          1.014            2.062      6.17     74.57
         H          1.007            2.062      6.17     74.64
         H          1.013            2.062      6.17     74.58
         H          1.026            2.062      6.16     74.45
         H          1.043            2.062      6.15     74.31
         H          1.026            2.062      6.16     74.46
         H          1.011            2.062      6.17     74.60
         H          1.017            2.062      6.17     74.54
         H          1.011            2.062      6.17     74.60
         H          1.065            2.062      6.13     74.14
         H          1.065            2.062      6.13     74.14
         H          1.025            2.062      6.16     74.47
         H          1.015            2.062      6.17     74.56
         H          1.015            2.062      6.17     74.56
         H          1.011            2.062      6.17     74.61
         H          1.065            2.062      6.13     74.14
         H          1.066            2.062      6.13     74.14
         H          1.024            2.062      6.16     74.47
         H          1.015            2.062      6.17     74.56
         H          1.015            2.062      6.17     74.56
         H          1.011            2.062      6.17     74.61
         H          1.027            2.062      6.16     74.45
         H          1.042            2.062      6.15     74.31
         H          1.026            2.062      6.16     74.46
         H          1.011            2.062      6.17     74.60
         H          1.017            2.062      6.17     74.54
         H          1.011            2.062      6.17     74.60
         H          1.055            2.062      6.14     74.22
         H          1.016            2.062      6.17     74.56
         H          1.060            2.062      6.14     74.18
         H          1.014            2.062      6.17     74.57
         H          1.007            2.062      6.17     74.64
         H          1.013            2.062      6.17     74.58
         H          1.029            2.062      6.16     74.43
         H          1.038            2.062      6.15     74.35
         H          1.031            2.062      6.16     74.41
         H          1.028            2.062      6.16     74.44
         H          1.044            2.062      6.15     74.30

         Molecular C6 ( Ry / a.u.^6 ) =   1214773.56


     Subspace diagonalization in iterative solution of the eigenvalue problem:
     a serial algorithm will be used


     Parallelization info
     --------------------
     sticks:   dense  smooth     PW     G-vecs:    dense   smooth      PW
     Min         665     665    171                74499    74499    9755
     Max         666     666    172                74502    74502    9760
     Sum       21305   21305   5489              2384011  2384011  312217



     bravais-lattice index     =            0
     lattice parameter (alat)  =      24.1526  a.u.
     unit-cell volume          =   13424.2327 (a.u.)^3
     number of atoms/cell      =           96
     number of atomic types    =            5
     number of electrons       =       408.00
     number of Kohn-Sham states=          204
     kinetic-energy cutoff     =     120.0000  Ry
     charge density cutoff     =     480.0000  Ry
     convergence threshold     =      1.0E-07
     mixing beta               =       0.7000
     number of iterations used =            8  plain     mixing
     Exchange-correlation      = SLA PW PBX PBC ( 1  4  3  4 0 0)
     nstep                     =          150


     celldm(1)=  24.152590  celldm(2)=   0.000000  celldm(3)=   0.000000
     celldm(4)=   0.000000  celldm(5)=   0.000000  celldm(6)=   0.000000

     crystal axes: (cart. coord. in units of alat)
               a(1) = (   0.976259   0.000000   0.000000 )  
               a(2) = (   0.000000   0.978566   0.000000 )  
               a(3) = (   0.000000   0.000000   0.997339 )  

     reciprocal axes: (cart. coord. in units 2 pi/alat)
               b(1) = (  1.024318  0.000000  0.000000 )  
               b(2) = (  0.000000  1.021903  0.000000 )  
               b(3) = (  0.000000  0.000000  1.002668 )  


     PseudoPot. # 1 for Pb read from file:
     ../../../../Pseudopotential/Pb.pbe-dn-kjpaw_psl.1.0.0.UPF
     MD5 check sum: 684fc8fbce61a260853528575e4d9ab7
     Pseudo is Projector augmented-wave + core cor, Zval = 14.0
     Generated using "atomic" code by A. Dal Corso v.6.3
     Shape of augmentation charge: PSQ
     Using radial grid of 1281 points,  6 beta functions with: 
                l(1) =   0
                l(2) =   0
                l(3) =   1
                l(4) =   1
                l(5) =   2
                l(6) =   2
     Q(r) pseudized with 0 coefficients 


     PseudoPot. # 2 for I  read from file:
     ../../../../Pseudopotential/I.pbe-n-kjpaw_psl.1.0.0.UPF
     MD5 check sum: cd3d296c3308a581e1559a0c8a554cb5
     Pseudo is Projector augmented-wave + core cor, Zval =  7.0
     Generated using "atomic" code by A. Dal Corso v.6.3
     Shape of augmentation charge: PSQ
     Using radial grid of 1247 points,  6 beta functions with: 
                l(1) =   0
                l(2) =   0
                l(3) =   1
                l(4) =   1
                l(5) =   2
                l(6) =   2
     Q(r) pseudized with 0 coefficients 


     PseudoPot. # 3 for C  read from file:
     ../../../../Pseudopotential/C.pbe-n-kjpaw_psl.1.0.0.UPF
     MD5 check sum: 5f16ad9a65e90284d1d834d4ab3b0f7d
     Pseudo is Projector augmented-wave + core cor, Zval =  4.0
     Generated using "atomic" code by A. Dal Corso v.6.3
     Shape of augmentation charge: PSQ
     Using radial grid of 1073 points,  4 beta functions with: 
                l(1) =   0
                l(2) =   0
                l(3) =   1
                l(4) =   1
     Q(r) pseudized with 0 coefficients 


     PseudoPot. # 4 for N  read from file:
     ../../../../Pseudopotential/N.pbe-n-kjpaw_psl.1.0.0.UPF
     MD5 check sum: 14c48229446f9f2d411169a3abcbc3fa
     Pseudo is Projector augmented-wave + core cor, Zval =  5.0
     Generated using "atomic" code by A. Dal Corso v.6.3
     Shape of augmentation charge: PSQ
     Using radial grid of 1085 points,  4 beta functions with: 
                l(1) =   0
                l(2) =   0
                l(3) =   1
                l(4) =   1
     Q(r) pseudized with 0 coefficients 


     PseudoPot. # 5 for H  read from file:
     ../../../../Pseudopotential/H.pbe-kjpaw_psl.1.0.0.UPF
     MD5 check sum: d81a744832360e4a8af0b0b5b123bc2a
     Pseudo is Projector augmented-wave, Zval =  1.0
     Generated using "atomic" code by A. Dal Corso v.6.3MaX
     Shape of augmentation charge: PSQ
     Using radial grid of  929 points,  2 beta functions with: 
                l(1) =   0
                l(2) =   0
     Q(r) pseudized with 0 coefficients 


     atomic species   valence    mass     pseudopotential
        Pb            14.00   207.97600     Pb( 1.00)
        I              7.00   126.90400     I ( 1.00)
        C              4.00    12.00000     C ( 1.00)
        N              5.00    14.00300     N ( 1.00)
        H              1.00     1.00700     H ( 1.00)

     No symmetry found



   Cartesian axes

     site n.     atom                  positions (alat units)
         1           Pb  tau(   1) = (   0.0065075  -0.0063237   0.0056492  )
         2           Pb  tau(   2) = (   0.0063689  -0.0060002   0.5003162  )
         3           Pb  tau(   3) = (  -0.0014435   0.4847156   0.0010686  )
         4           Pb  tau(   4) = (  -0.0006881   0.4840439   0.5028859  )
         5           Pb  tau(   5) = (   0.4875119  -0.0048965   0.0045168  )
         6           Pb  tau(   6) = (   0.4863419  -0.0043986   0.5000813  )
         7           Pb  tau(   7) = (   0.4944419   0.4833391   0.0014359  )
         8           Pb  tau(   8) = (   0.4947200   0.4832675   0.5040807  )
         9           I   tau(   9) = (   0.2482401   0.0685340   0.0118176  )
        10           I   tau(  10) = (  -0.0376599   0.2387461  -0.0264582  )
        11           I   tau(  11) = (  -0.0309377   0.0185350   0.2508016  )
        12           I   tau(  12) = (   0.2482581   0.0701890   0.4950842  )
        13           I   tau(  13) = (  -0.0393607   0.2393241   0.5288960  )
        14           I   tau(  14) = (   0.0171677  -0.0268245   0.7495275  )
        15           I   tau(  15) = (   0.2486507   0.4525263   0.0266272  )
        16           I   tau(  16) = (   0.0717783   0.7285178   0.0022276  )
        17           I   tau(  17) = (  -0.0116743   0.4972611   0.2521070  )
        18           I   tau(  18) = (   0.2488001   0.4524466   0.4780308  )
        19           I   tau(  19) = (   0.0704568   0.7288280   0.5037499  )
        20           I   tau(  20) = (   0.0218476   0.4817772   0.7508771  )
        21           I   tau(  21) = (   0.7367934  -0.0374646  -0.0202909  )
        22           I   tau(  22) = (   0.5593349   0.2389801   0.0047803  )
        23           I   tau(  23) = (   0.5102002  -0.0074064   0.2519144  )
        24           I   tau(  24) = (   0.7368390  -0.0362869   0.5255260  )
        25           I   tau(  25) = (   0.5594765   0.2393945   0.5011700  )
        26           I   tau(  26) = (   0.4761988   0.0076097   0.7507320  )
        27           I   tau(  27) = (   0.7364667   0.5590725  -0.0043792  )
        28           I   tau(  28) = (   0.4485822   0.7281118   0.0299112  )
        29           I   tau(  29) = (   0.5057554   0.4626958   0.2515049  )
        30           I   tau(  30) = (   0.7363960   0.5575120   0.5101775  )
        31           I   tau(  31) = (   0.4505451   0.7281962   0.4713676  )
        32           I   tau(  32) = (   0.4569928   0.5072806   0.7500162  )
        33           C   tau(  33) = (   0.2462760   0.2818116   0.2520110  )
        34           C   tau(  34) = (   0.2769090   0.2751827   0.7497330  )
        35           C   tau(  35) = (   0.2536106   0.7707182   0.2534854  )
        36           C   tau(  36) = (   0.2873948   0.7712631   0.7494109  )
        37           C   tau(  37) = (   0.7754380   0.2820763   0.2512332  )
        38           C   tau(  38) = (   0.7419366   0.2811500   0.7517470  )
        39           C   tau(  39) = (   0.7652404   0.7643971   0.2516710  )
        40           C   tau(  40) = (   0.7335687   0.7712158   0.7504685  )
        41           N   tau(  41) = (   0.1514096   0.2418870   0.2520219  )
        42           N   tau(  42) = (   0.3344937   0.2291605   0.2519511  )
        43           N   tau(  43) = (   0.1940674   0.1927800   0.7535514  )
        44           N   tau(  44) = (   0.2297763   0.6562700   0.2539154  )
        45           N   tau(  45) = (   0.2107954   0.6833435   0.7511161  )
        46           N   tau(  46) = (   0.6985969   0.1942470   0.2529401  )
        47           N   tau(  47) = (   0.7181792   0.1666414   0.7526935  )
        48           N   tau(  48) = (   0.6830312   0.6810503   0.2540284  )
        49           N   tau(  49) = (   0.6388075   0.7313138   0.7505861  )
        50           N   tau(  50) = (   0.8216607   0.7182893   0.7504252  )
        51           H   tau(  51) = (   0.2525776   0.3667085   0.2520491  )
        52           H   tau(  52) = (   0.1352028   0.1635112   0.2518929  )
        53           H   tau(  53) = (   0.0895528   0.2922867   0.2520127  )
        54           H   tau(  54) = (   0.3392165   0.1495440   0.2515262  )
        55           H   tau(  55) = (   0.4028614   0.2704786   0.2518963  )
        56           H   tau(  56) = (   0.1981351   0.1450608   0.6877028  )
        57           H   tau(  57) = (   0.1200613   0.2250090   0.7559834  )
        58           H   tau(  58) = (   0.2027338   0.1459259   0.8197362  )
        59           H   tau(  59) = (   0.2653928   0.3221598   0.6790739  )
        60           H   tau(  60) = (   0.3532176   0.2363251   0.7477985  )
        61           H   tau(  61) = (   0.2700466   0.3239247   0.8197070  )
        62           H   tau(  62) = (   0.2558180   0.6199584   0.1862087  )
        63           H   tau(  63) = (   0.1500822   0.6413162   0.2584207  )
        64           H   tau(  64) = (   0.2636459   0.6185071   0.3172843  )
        65           H   tau(  65) = (   0.2147473   0.8060985   0.1859692  )
        66           H   tau(  66) = (   0.3382442   0.7805434   0.2475008  )
        67           H   tau(  67) = (   0.2250065   0.8044187   0.3267036  )
        68           H   tau(  68) = (   0.1623368   0.6857745   0.6856466  )
        69           H   tau(  69) = (   0.1637326   0.6869219   0.8175780  )
        70           H   tau(  70) = (   0.2485358   0.6118085   0.7513635  )
        71           H   tau(  71) = (   0.3350543   0.7642350   0.6787003  )
        72           H   tau(  72) = (   0.3363954   0.7658606   0.8193405  )
        73           H   tau(  73) = (   0.2438536   0.8448957   0.7489394  )
        74           H   tau(  74) = (   0.6501861   0.1967159   0.1873979  )
        75           H   tau(  75) = (   0.6514217   0.1978748   0.3193635  )
        76           H   tau(  76) = (   0.7361122   0.1225723   0.2532257  )
        77           H   tau(  77) = (   0.8231646   0.2748473   0.1805570  )
        78           H   tau(  78) = (   0.8242789   0.2767034   0.3213302  )
        79           H   tau(  79) = (   0.7321949   0.3558773   0.2505362  )
        80           H   tau(  80) = (   0.7445321   0.1300610   0.6851930  )
        81           H   tau(  81) = (   0.6384735   0.1517211   0.7570952  )
        82           H   tau(  82) = (   0.7518289   0.1292037   0.8163850  )
        83           H   tau(  83) = (   0.7037490   0.3160116   0.6835659  )
        84           H   tau(  84) = (   0.8266415   0.2910800   0.7463515  )
        85           H   tau(  85) = (   0.7122559   0.3153097   0.8243167  )
        86           H   tau(  86) = (   0.6883852   0.6337097   0.1878351  )
        87           H   tau(  87) = (   0.6086987   0.7125634   0.2558438  )
        88           H   tau(  88) = (   0.6914775   0.6340335   0.3202469  )
        89           H   tau(  89) = (   0.7539453   0.8118070   0.1811656  )
        90           H   tau(  90) = (   0.8417325   0.7258094   0.2502483  )
        91           H   tau(  91) = (   0.7574971   0.8127096   0.3220523  )
        92           H   tau(  92) = (   0.7398005   0.8561095   0.7503522  )
        93           H   tau(  93) = (   0.6226532   0.6530455   0.7507056  )
        94           H   tau(  94) = (   0.5767245   0.7814611   0.7504597  )
        95           H   tau(  95) = (   0.8260045   0.6386695   0.7501500  )
        96           H   tau(  96) = (   0.8902337   0.7593279   0.7500069  )

     number of k points=    32
                       cart. coord. in units 2pi/alat
        k(    1) = (   0.1280397   0.1277379   0.1253335), wk =   0.0625000
        k(    2) = (   0.1280397   0.1277379   0.3760005), wk =   0.0625000
        k(    3) = (   0.1280397   0.3832137   0.1253335), wk =   0.0625000
        k(    4) = (   0.1280397   0.3832137   0.3760005), wk =   0.0625000
        k(    5) = (   0.3841192   0.1277379   0.1253335), wk =   0.0625000
        k(    6) = (   0.3841192   0.1277379   0.3760005), wk =   0.0625000
        k(    7) = (   0.3841192   0.3832137   0.1253335), wk =   0.0625000
        k(    8) = (   0.3841192   0.3832137   0.3760005), wk =   0.0625000
        k(    9) = (  -0.1280397  -0.1277379   0.1253335), wk =   0.0625000
        k(   10) = (  -0.1280397   0.1277379  -0.1253335), wk =   0.0625000
        k(   11) = (   0.1280397  -0.1277379  -0.1253335), wk =   0.0625000
        k(   12) = (  -0.1280397  -0.1277379   0.3760005), wk =   0.0625000
        k(   13) = (  -0.1280397   0.1277379  -0.3760005), wk =   0.0625000
        k(   14) = (   0.1280397  -0.1277379  -0.3760005), wk =   0.0625000
        k(   15) = (  -0.1280397  -0.3832137   0.1253335), wk =   0.0625000
        k(   16) = (  -0.1280397   0.3832137  -0.1253335), wk =   0.0625000
        k(   17) = (   0.1280397  -0.3832137  -0.1253335), wk =   0.0625000
        k(   18) = (  -0.1280397  -0.3832137   0.3760005), wk =   0.0625000
        k(   19) = (  -0.1280397   0.3832137  -0.3760005), wk =   0.0625000
        k(   20) = (   0.1280397  -0.3832137  -0.3760005), wk =   0.0625000
        k(   21) = (  -0.3841192  -0.1277379   0.1253335), wk =   0.0625000
        k(   22) = (  -0.3841192   0.1277379  -0.1253335), wk =   0.0625000
        k(   23) = (   0.3841192  -0.1277379  -0.1253335), wk =   0.0625000
        k(   24) = (  -0.3841192  -0.1277379   0.3760005), wk =   0.0625000
        k(   25) = (  -0.3841192   0.1277379  -0.3760005), wk =   0.0625000
        k(   26) = (   0.3841192  -0.1277379  -0.3760005), wk =   0.0625000
        k(   27) = (  -0.3841192  -0.3832137   0.1253335), wk =   0.0625000
        k(   28) = (  -0.3841192   0.3832137  -0.1253335), wk =   0.0625000
        k(   29) = (   0.3841192  -0.3832137  -0.1253335), wk =   0.0625000
        k(   30) = (  -0.3841192  -0.3832137   0.3760005), wk =   0.0625000
        k(   31) = (  -0.3841192   0.3832137  -0.3760005), wk =   0.0625000
        k(   32) = (   0.3841192  -0.3832137  -0.3760005), wk =   0.0625000

     Dense  grid:  2384011 G-vectors     FFT dimensions: ( 180, 180, 180)

     Estimated max dynamical RAM per process >       1.69 GB

     Estimated total dynamical RAM >      54.07 GB

     Initial potential from superposition of free atoms

     starting charge  407.97850, renormalised to  408.00000
     Starting wfcs are  286 randomized atomic wfcs
     Checking if some PAW data can be deallocated... 

     total cpu time spent up to now is     5086.0 secs

     Self-consistent Calculation

     iteration #  1     ecut=   120.00 Ry     beta= 0.70
     Davidson diagonalization with overlap
     ethr =  1.00E-02,  avg # of iterations =  2.0

     total cpu time spent up to now is    15071.6 secs

     total energy              =  -16543.27574526 Ry
     Harris-Foulkes estimate   =  -16546.90211878 Ry
     estimated scf accuracy    <       5.99604921 Ry

     iteration #  2     ecut=   120.00 Ry     beta= 0.70
     Davidson diagonalization with overlap
     ethr =  1.47E-03,  avg # of iterations =  3.4

     total cpu time spent up to now is    28273.8 secs

     total energy              =  -16544.57857883 Ry
     Harris-Foulkes estimate   =  -16546.04274695 Ry
     estimated scf accuracy    <       2.63507780 Ry

     iteration #  3     ecut=   120.00 Ry     beta= 0.70
     Davidson diagonalization with overlap
     ethr =  6.46E-04,  avg # of iterations =  4.0

     total cpu time spent up to now is    38974.6 secs

     total energy              =  -16545.19119111 Ry
     Harris-Foulkes estimate   =  -16545.24594007 Ry
     estimated scf accuracy    <       0.12284097 Ry

     iteration #  4     ecut=   120.00 Ry     beta= 0.70
     Davidson diagonalization with overlap
     ethr =  3.01E-05,  avg # of iterations =  4.0

     total cpu time spent up to now is    48419.8 secs

     total energy              =  -16545.22372141 Ry
     Harris-Foulkes estimate   =  -16545.24006141 Ry
     estimated scf accuracy    <       0.03134723 Ry

     iteration #  5     ecut=   120.00 Ry     beta= 0.70
     Davidson diagonalization with overlap
     ethr =  7.68E-06,  avg # of iterations =  4.0

     total cpu time spent up to now is    50343.0 secs

     total energy              =  -16545.23007068 Ry
     Harris-Foulkes estimate   =  -16545.23112294 Ry
     estimated scf accuracy    <       0.00204968 Ry

     iteration #  6     ecut=   120.00 Ry     beta= 0.70
     Davidson diagonalization with overlap
     ethr =  5.02E-07,  avg # of iterations =  4.0

     total cpu time spent up to now is    52550.5 secs

     total energy              =  -16545.23068826 Ry
     Harris-Foulkes estimate   =  -16545.23089829 Ry
     estimated scf accuracy    <       0.00047366 Ry

     iteration #  7     ecut=   120.00 Ry     beta= 0.70
     Davidson diagonalization with overlap
     ethr =  1.16E-07,  avg # of iterations =  3.0

     total cpu time spent up to now is    54626.1 secs

     total energy              =  -16545.23079201 Ry
     Harris-Foulkes estimate   =  -16545.23079918 Ry
     estimated scf accuracy    <       0.00002291 Ry

     iteration #  8     ecut=   120.00 Ry     beta= 0.70
     Davidson diagonalization with overlap
     ethr =  5.62E-09,  avg # of iterations =  4.0

     total cpu time spent up to now is    57673.1 secs

     total energy              =  -16545.23079746 Ry
     Harris-Foulkes estimate   =  -16545.23080355 Ry
     estimated scf accuracy    <       0.00001286 Ry

     iteration #  9     ecut=   120.00 Ry     beta= 0.70
     Davidson diagonalization with overlap
     ethr =  3.15E-09,  avg # of iterations =  3.8

     total cpu time spent up to now is    60253.5 secs

     total energy              =  -16545.23080036 Ry
     Harris-Foulkes estimate   =  -16545.23080104 Ry
     estimated scf accuracy    <       0.00000154 Ry

     iteration # 10     ecut=   120.00 Ry     beta= 0.70
     Davidson diagonalization with overlap
     ethr =  3.78E-10,  avg # of iterations =  4.0

     total cpu time spent up to now is    62792.7 secs

     total energy              =  -16545.23080071 Ry
     Harris-Foulkes estimate   =  -16545.23080080 Ry
     estimated scf accuracy    <       0.00000018 Ry

     iteration # 11     ecut=   120.00 Ry     beta= 0.70
     Davidson diagonalization with overlap
     ethr =  4.48E-11,  avg # of iterations =  4.0

     total cpu time spent up to now is    65382.3 secs

     End of self-consistent calculation

          k = 0.1280 0.1277 0.1253 (297954 PWs)   bands (ev):

   -17.7719 -17.7625 -17.4900 -17.4842 -17.4541 -17.4275 -17.3957 -17.3844
   -15.6331 -15.6330 -14.1232 -14.1229 -14.1122 -14.1104 -14.1017 -14.1000
   -14.0981 -14.0976 -14.0954 -14.0914 -14.0889 -14.0868 -14.0790 -14.0787
   -14.0777 -14.0773 -14.0771 -14.0757 -14.0756 -14.0751 -14.0724 -14.0718
   -14.0693 -14.0687 -14.0635 -14.0618 -14.0581 -14.0581 -14.0560 -14.0559
   -14.0553 -14.0552 -14.0549 -14.0529 -14.0528 -14.0522 -14.0432 -14.0413
   -14.0412 -14.0406 -10.4386 -10.4339 -10.3970 -10.3807 -10.3685 -10.3647
    -9.6361  -9.6269  -9.5193  -9.4000  -9.3711  -9.3253  -9.2719  -9.2268
    -9.2128  -9.1832  -9.1338  -9.1233  -9.0816  -9.0438  -9.0325  -9.0115
    -9.0090  -9.0052  -8.9828  -8.9759  -8.9309  -8.8821  -8.8551  -8.8355
    -8.8004  -8.7876  -7.6151  -7.6098  -7.0431  -7.0377  -6.9150  -6.9105
    -6.8972  -6.8799  -6.8554  -6.8489  -6.8391  -6.8368  -6.8192  -6.8163
    -6.7902  -6.7812  -5.7323  -5.3237  -5.2979  -5.2916  -5.2748  -5.2627
    -4.8924  -4.8678  -4.8580  -4.7964  -4.7707  -4.7461  -4.7248  -4.7166
    -4.7074  -4.4316  -3.7396  -3.7332  -3.1911  -3.1855  -2.7094  -2.6989
    -2.6897  -2.6797  -2.6668  -2.6633  -2.6564  -2.6526  -2.6465  -2.6439
    -2.6409  -2.6329  -0.8026  -0.7613  -0.6749  -0.6683  -0.6379  -0.5739
    -0.5733  -0.5466  -0.4998  -0.4273  -0.4220  -0.3607  -0.0078   0.0893
     0.3855   0.3920   0.4335   0.4692   0.4955   0.5034   0.5618   0.6128
     0.6698   0.6762   0.7289   0.7579   0.8164   0.8695   0.8876   0.9209
     0.9446   0.9649   1.0111   1.0142   1.0484   1.0747   1.0909   1.1006
     1.1219   1.1341   1.1509   1.1599   1.1638   1.1943   1.2117   1.2448
     1.2648   1.2893   1.3202   1.3432   1.3519   1.3716   1.4086   1.4195
     1.4426   1.4507   1.4674   1.4867   1.5113   1.5271   1.5611   1.5925
     1.6183   1.6526   1.6644   1.7397   1.7411   1.8321   1.8524   1.8813
     1.9354   1.9672   2.0033   2.2156

          k = 0.1280 0.1277 0.3760 (297996 PWs)   bands (ev):

   -17.7719 -17.7625 -17.4900 -17.4842 -17.4541 -17.4275 -17.3957 -17.3844
   -15.6331 -15.6330 -14.1212 -14.1203 -14.1148 -14.1124 -14.1009 -14.0998
   -14.0973 -14.0957 -14.0953 -14.0915 -14.0907 -14.0887 -14.0790 -14.0787
   -14.0777 -14.0772 -14.0771 -14.0757 -14.0756 -14.0751 -14.0724 -14.0718
   -14.0693 -14.0687 -14.0635 -14.0618 -14.0581 -14.0581 -14.0559 -14.0559
   -14.0553 -14.0552 -14.0549 -14.0529 -14.0528 -14.0522 -14.0432 -14.0413
   -14.0412 -14.0406 -10.4383 -10.4338 -10.3970 -10.3808 -10.3684 -10.3649
    -9.6300  -9.6236  -9.4948  -9.4388  -9.3647  -9.3121  -9.3090  -9.2566
    -9.2391  -9.2210  -9.0705  -9.0663  -9.0513  -9.0400  -9.0305  -9.0215
    -9.0184  -9.0058  -8.9630  -8.9470  -8.9271  -8.8968  -8.8867  -8.8628
    -8.7962  -8.7907  -7.6148  -7.6108  -7.0431  -7.0378  -6.9126  -6.9084
    -6.8971  -6.8801  -6.8551  -6.8458  -6.8386  -6.8342  -6.8241  -6.8219
    -6.7894  -6.7808  -5.6099  -5.4221  -5.2919  -5.2899  -5.2027  -5.1621
    -5.0161  -4.9902  -4.8131  -4.7954  -4.7732  -4.7486  -4.7247  -4.7126
    -4.6962  -4.5716  -3.7398  -3.7334  -3.1910  -3.1856  -2.7047  -2.6990
    -2.6875  -2.6819  -2.6729  -2.6702  -2.6617  -2.6546  -2.6464  -2.6414
    -2.6296  -2.6257  -0.6451  -0.6198  -0.6126  -0.5701  -0.5123  -0.4775
    -0.4722  -0.4376  -0.3218  -0.3141  -0.2423  -0.1785   0.0010   0.0638
     0.2413   0.2903   0.3535   0.3998   0.4597   0.4676   0.4886   0.5192
     0.5220   0.5460   0.5849   0.6144   0.6247   0.6579   0.8437   0.8841
     0.8922   0.9147   1.0011   1.0020   1.0088   1.0260   1.0506   1.0716
     1.0916   1.1120   1.1431   1.1445   1.2001   1.2137   1.2692   1.2737
     1.3117   1.3134   1.3383   1.3537   1.3629   1.3756   1.4237   1.4410
     1.4458   1.4635   1.4800   1.4943   1.5034   1.5188   1.5596   1.5658
     1.6149   1.6161   1.6566   1.6997   1.7168   1.7809   1.7911   1.8090
     1.8592   1.8610   2.0101   2.0577

          k = 0.1280 0.3832 0.1253 (297992 PWs)   bands (ev):

   -17.7719 -17.7625 -17.4900 -17.4842 -17.4541 -17.4275 -17.3957 -17.3844
   -15.6331 -15.6330 -14.1231 -14.1228 -14.1121 -14.1103 -14.1008 -14.1000
   -14.0975 -14.0972 -14.0947 -14.0917 -14.0889 -14.0873 -14.0793 -14.0788
   -14.0778 -14.0775 -14.0772 -14.0763 -14.0762 -14.0752 -14.0725 -14.0718
   -14.0693 -14.0687 -14.0635 -14.0618 -14.0581 -14.0581 -14.0560 -14.0559
   -14.0553 -14.0552 -14.0549 -14.0529 -14.0528 -14.0522 -14.0432 -14.0413
   -14.0412 -14.0406 -10.4381 -10.4336 -10.3966 -10.3799 -10.3691 -10.3661
    -9.6356  -9.6296  -9.4813  -9.4284  -9.3613  -9.3025  -9.3004  -9.2575
    -9.2119  -9.2044  -9.1438  -9.1353  -9.0711  -9.0664  -9.0249  -9.0147
    -9.0021  -8.9746  -8.9690  -8.9576  -8.8860  -8.8754  -8.8640  -8.8316
    -8.8267  -8.8085  -7.6141  -7.6102  -7.0430  -7.0377  -6.9148  -6.9107
    -6.8966  -6.8795  -6.8556  -6.8490  -6.8393  -6.8377  -6.8194  -6.8164
    -6.7903  -6.7813  -5.6161  -5.4412  -5.2932  -5.2910  -5.1845  -5.1611
    -5.0217  -4.9934  -4.8130  -4.7959  -4.7554  -4.7447  -4.7255  -4.7172
    -4.6830  -4.5550  -3.7400  -3.7336  -3.1910  -3.1856  -2.7035  -2.6978
    -2.6844  -2.6799  -2.6657  -2.6614  -2.6579  -2.6536  -2.6504  -2.6474
    -2.6411  -2.6364  -0.7731  -0.7529  -0.6601  -0.6293  -0.6047  -0.5789
    -0.5296  -0.4710  -0.2980  -0.1860  -0.1098  -0.0583   0.0644   0.0715
     0.1918   0.3258   0.3892   0.4218   0.4289   0.4616   0.5081   0.5584
     0.5613   0.5858   0.6299   0.6737   0.7242   0.7884   0.8233   0.8523
     0.8813   0.8968   0.9939   0.9958   1.0251   1.0507   1.0706   1.0787
     1.1025   1.1066   1.1492   1.1724   1.1878   1.1895   1.2200   1.2427
     1.2553   1.2815   1.3092   1.3395   1.3584   1.3618   1.4048   1.4143
     1.4327   1.4581   1.4705   1.5079   1.5544   1.5569   1.5786   1.5821
     1.5973   1.6147   1.6621   1.6893   1.7506   1.8153   1.8190   1.8325
     1.8626   1.8740   1.9978   2.0552

          k = 0.1280 0.3832 0.3760 (297985 PWs)   bands (ev):

   -17.7719 -17.7625 -17.4900 -17.4842 -17.4541 -17.4275 -17.3957 -17.3844
   -15.6331 -15.6330 -14.1211 -14.1202 -14.1147 -14.1123 -14.1002 -14.0993
   -14.0967 -14.0954 -14.0946 -14.0917 -14.0910 -14.0893 -14.0793 -14.0788
   -14.0778 -14.0775 -14.0772 -14.0763 -14.0762 -14.0752 -14.0725 -14.0718
   -14.0693 -14.0687 -14.0635 -14.0618 -14.0581 -14.0581 -14.0559 -14.0559
   -14.0553 -14.0552 -14.0549 -14.0529 -14.0528 -14.0522 -14.0432 -14.0413
   -14.0412 -14.0406 -10.4380 -10.4335 -10.3966 -10.3799 -10.3692 -10.3662
    -9.6313  -9.6254  -9.4605  -9.4285  -9.3591  -9.3304  -9.3233  -9.2871
    -9.2533  -9.2362  -9.0737  -9.0697  -9.0480  -9.0455  -9.0297  -9.0209
    -8.9970  -8.9928  -8.9513  -8.9482  -8.9146  -8.8944  -8.8642  -8.8450
    -8.8218  -8.8127  -7.6143  -7.6106  -7.0431  -7.0377  -6.9126  -6.9085
    -6.8967  -6.8797  -6.8553  -6.8462  -6.8390  -6.8347  -6.8241  -6.8216
    -6.7895  -6.7809  -5.4970  -5.3333  -5.3123  -5.2916  -5.2787  -5.1383
    -5.0739  -4.9290  -4.8964  -4.8083  -4.7772  -4.7644  -4.7297  -4.7136
    -4.7053  -4.6674  -3.7402  -3.7338  -3.1910  -3.1856  -2.7036  -2.6996
    -2.6845  -2.6811  -2.6689  -2.6680  -2.6619  -2.6554  -2.6498  -2.6457
    -2.6285  -2.6263  -0.6084  -0.5789  -0.5422  -0.5057  -0.4163  -0.3686
    -0.3093  -0.2333  -0.2143  -0.1693  -0.1163  -0.0869   0.0481   0.0570
     0.1988   0.2127   0.2963   0.3260   0.3699   0.3966   0.4081   0.4423
     0.4926   0.5085   0.5529   0.5595   0.6987   0.7017   0.7621   0.7926
     0.8371   0.8380   0.9001   0.9047   0.9314   0.9328   1.0147   1.0290
     1.0590   1.0608   1.1237   1.1367   1.1519   1.1648   1.2389   1.2536
     1.2934   1.3131   1.3308   1.3460   1.3761   1.3911   1.4283   1.4438
     1.4783   1.4793   1.4938   1.5062   1.5382   1.5408   1.5648   1.5682
     1.5954   1.6110   1.6580   1.6648   1.7129   1.7247   1.7958   1.8100
     1.8394   1.8441   1.8773   1.8937

          k = 0.3841 0.1277 0.1253 (297958 PWs)   bands (ev):

   -17.7719 -17.7625 -17.4900 -17.4842 -17.4541 -17.4275 -17.3957 -17.3844
   -15.6331 -15.6330 -14.1231 -14.1228 -14.1120 -14.1103 -14.1007 -14.0991
   -14.0984 -14.0971 -14.0946 -14.0918 -14.0892 -14.0877 -14.0790 -14.0788
   -14.0778 -14.0776 -14.0771 -14.0764 -14.0761 -14.0752 -14.0725 -14.0718
   -14.0693 -14.0687 -14.0635 -14.0618 -14.0581 -14.0580 -14.0560 -14.0559
   -14.0553 -14.0552 -14.0549 -14.0529 -14.0528 -14.0522 -14.0432 -14.0413
   -14.0412 -14.0406 -10.4382 -10.4337 -10.3969 -10.3807 -10.3690 -10.3656
    -9.6261  -9.6202  -9.4980  -9.4524  -9.3540  -9.3043  -9.2957  -9.2482
    -9.2101  -9.2047  -9.1392  -9.1333  -9.0847  -9.0723  -9.0072  -9.0007
    -8.9887  -8.9859  -8.9724  -8.9638  -8.8872  -8.8747  -8.8722  -8.8319
    -8.8242  -8.8112  -7.6146  -7.6107  -7.0437  -7.0383  -6.9150  -6.9110
    -6.8971  -6.8800  -6.8555  -6.8477  -6.8391  -6.8365  -6.8188  -6.8157
    -6.7902  -6.7813  -5.6143  -5.4367  -5.2937  -5.2917  -5.1894  -5.1606
    -5.0243  -4.9896  -4.8070  -4.7947  -4.7639  -4.7474  -4.7230  -4.7116
    -4.6900  -4.5590  -3.7403  -3.7339  -3.1911  -3.1857  -2.7070  -2.7012
    -2.6873  -2.6834  -2.6646  -2.6636  -2.6549  -2.6519  -2.6480  -2.6446
    -2.6392  -2.6343  -0.7873  -0.7739  -0.6491  -0.6279  -0.6035  -0.5785
    -0.4460  -0.4131  -0.2840  -0.2401  -0.1812  -0.0997   0.0306   0.1195
     0.2231   0.3361   0.3957   0.4223   0.4312   0.4800   0.4846   0.5324
     0.5651   0.5847   0.6454   0.6685   0.7232   0.7762   0.8325   0.8720
     0.8795   0.9479   0.9699   0.9977   1.0028   1.0586   1.0889   1.0950
     1.1262   1.1340   1.1523   1.1542   1.1771   1.1913   1.2259   1.2448
     1.2734   1.3099   1.3221   1.3293   1.3478   1.3603   1.3748   1.3864
     1.3970   1.4046   1.4805   1.4831   1.5311   1.5326   1.5776   1.5855
     1.5874   1.6122   1.6592   1.7048   1.7505   1.7911   1.8446   1.8481
     1.8619   1.9066   1.9916   2.0525

          k = 0.3841 0.1277 0.3760 (298021 PWs)   bands (ev):

   -17.7719 -17.7625 -17.4900 -17.4842 -17.4541 -17.4275 -17.3957 -17.3844
   -15.6331 -15.6330 -14.1211 -14.1201 -14.1147 -14.1123 -14.1001 -14.0987
   -14.0966 -14.0959 -14.0941 -14.0920 -14.0912 -14.0899 -14.0789 -14.0789
   -14.0778 -14.0776 -14.0771 -14.0764 -14.0761 -14.0752 -14.0725 -14.0718
   -14.0694 -14.0687 -14.0635 -14.0618 -14.0581 -14.0580 -14.0559 -14.0559
   -14.0553 -14.0552 -14.0549 -14.0529 -14.0528 -14.0522 -14.0432 -14.0413
   -14.0412 -14.0406 -10.4381 -10.4336 -10.3970 -10.3807 -10.3690 -10.3656
    -9.6240  -9.6180  -9.4668  -9.4204  -9.4012  -9.3548  -9.3036  -9.2718
    -9.2492  -9.2326  -9.0702  -9.0656  -9.0398  -9.0379  -9.0226  -9.0171
    -9.0065  -8.9951  -8.9522  -8.9485  -8.9170  -8.9005  -8.8632  -8.8448
    -8.8235  -8.8166  -7.6149  -7.6112  -7.0437  -7.0384  -6.9127  -6.9087
    -6.8972  -6.8802  -6.8551  -6.8449  -6.8383  -6.8333  -6.8239  -6.8215
    -6.7893  -6.7807  -5.4950  -5.3260  -5.3098  -5.2923  -5.2837  -5.1349
    -5.0787  -4.9238  -4.9075  -4.8087  -4.7780  -4.7646  -4.7305  -4.7125
    -4.7052  -4.6699  -3.7404  -3.7340  -3.1911  -3.1857  -2.7040  -2.6997
    -2.6887  -2.6855  -2.6702  -2.6694  -2.6602  -2.6540  -2.6456  -2.6405
    -2.6297  -2.6270  -0.6018  -0.5729  -0.5256  -0.5107  -0.3666  -0.3383
    -0.3173  -0.2603  -0.2184  -0.2084  -0.1206  -0.1047   0.0255   0.0349
     0.2275   0.2520   0.3109   0.3131   0.3529   0.3741   0.4145   0.4406
     0.4707   0.5100   0.5765   0.5839   0.7080   0.7175   0.7747   0.7861
     0.8418   0.8441   0.9160   0.9304   0.9630   0.9727   0.9905   1.0344
     1.0504   1.0687   1.0757   1.1020   1.1416   1.1625   1.2275   1.2762
     1.3000   1.3245   1.3552   1.3589   1.3660   1.3765   1.4028   1.4078
     1.4589   1.4651   1.4842   1.4964   1.5119   1.5138   1.5665   1.5684
     1.5853   1.6133   1.6448   1.6775   1.7336   1.7357   1.7810   1.7814
     1.8304   1.8515   1.9129   1.9273

          k = 0.3841 0.3832 0.1253 (298038 PWs)   bands (ev):

   -17.7719 -17.7625 -17.4900 -17.4842 -17.4541 -17.4275 -17.3957 -17.3844
   -15.6331 -15.6330 -14.1230 -14.1227 -14.1119 -14.1101 -14.0998 -14.0989
   -14.0978 -14.0970 -14.0942 -14.0912 -14.0894 -14.0880 -14.0797 -14.0788
   -14.0782 -14.0780 -14.0773 -14.0769 -14.0764 -14.0752 -14.0726 -14.0718
   -14.0694 -14.0687 -14.0635 -14.0618 -14.0581 -14.0580 -14.0560 -14.0559
   -14.0553 -14.0552 -14.0549 -14.0529 -14.0528 -14.0522 -14.0432 -14.0413
   -14.0412 -14.0406 -10.4384 -10.4337 -10.3966 -10.3798 -10.3693 -10.3660
    -9.6287  -9.6229  -9.4588  -9.4344  -9.3956  -9.3323  -9.2718  -9.2590
    -9.2094  -9.2089  -9.1541  -9.1378  -9.1090  -9.1069  -8.9897  -8.9842
    -8.9745  -8.9689  -8.9542  -8.9309  -8.8865  -8.8695  -8.8604  -8.8529
    -8.8330  -8.8290  -7.6141  -7.6105  -7.0436  -7.0383  -6.9151  -6.9110
    -6.8968  -6.8796  -6.8558  -6.8485  -6.8392  -6.8366  -6.8189  -6.8157
    -6.7904  -6.7813  -5.5019  -5.3608  -5.2942  -5.2917  -5.2884  -5.1555
    -5.0592  -4.9117  -4.8817  -4.8083  -4.7755  -4.7637  -4.7298  -4.7118
    -4.7021  -4.6569  -3.7407  -3.7343  -3.1911  -3.1857  -2.7031  -2.6982
    -2.6836  -2.6811  -2.6648  -2.6614  -2.6572  -2.6532  -2.6515  -2.6472
    -2.6398  -2.6367  -0.7613  -0.7527  -0.6564  -0.6326  -0.3491  -0.2938
    -0.2650  -0.2466  -0.1985  -0.1672  -0.1117  -0.0544   0.0880   0.1008
     0.2095   0.2158   0.3713   0.3819   0.4253   0.4422   0.4604   0.4770
     0.4885   0.5538   0.5757   0.5780   0.6204   0.6658   0.6879   0.7848
     0.8618   0.9431   0.9640   0.9944   0.9985   1.0428   1.0702   1.1023
     1.1065   1.1099   1.1328   1.1461   1.1520   1.1787   1.1939   1.2186
     1.2533   1.2592   1.3030   1.3067   1.3341   1.3405   1.3552   1.3760
     1.3775   1.4147   1.4403   1.4463   1.4840   1.5286   1.5711   1.5811
     1.6084   1.6260   1.6831   1.6948   1.7409   1.7525   1.8068   1.8290
     1.8473   1.8529   1.9334   1.9530

          k = 0.3841 0.3832 0.3760 (298023 PWs)   bands (ev):

   -17.7719 -17.7625 -17.4900 -17.4842 -17.4541 -17.4275 -17.3957 -17.3844
   -15.6331 -15.6330 -14.1210 -14.1200 -14.1145 -14.1121 -14.0993 -14.0980
   -14.0963 -14.0951 -14.0942 -14.0920 -14.0914 -14.0902 -14.0797 -14.0788
   -14.0782 -14.0780 -14.0773 -14.0769 -14.0764 -14.0752 -14.0726 -14.0718
   -14.0694 -14.0687 -14.0635 -14.0618 -14.0581 -14.0580 -14.0559 -14.0559
   -14.0553 -14.0552 -14.0549 -14.0529 -14.0528 -14.0522 -14.0432 -14.0413
   -14.0412 -14.0406 -10.4382 -10.4337 -10.3966 -10.3798 -10.3692 -10.3662
    -9.6264  -9.6204  -9.4316  -9.4096  -9.3811  -9.3463  -9.3337  -9.3127
    -9.2717  -9.2526  -9.0791  -9.0681  -9.0489  -9.0394  -9.0098  -9.0076
    -8.9973  -8.9856  -8.9384  -8.9231  -8.9067  -8.8976  -8.8554  -8.8499
    -8.8363  -8.8343  -7.6144  -7.6108  -7.0436  -7.0383  -6.9128  -6.9088
    -6.8968  -6.8798  -6.8554  -6.8455  -6.8387  -6.8336  -6.8237  -6.8211
    -6.7895  -6.7809  -5.3868  -5.2967  -5.2913  -5.2439  -5.1991  -5.1783
    -5.0613  -5.0463  -5.0070  -4.8885  -4.7840  -4.7781  -4.7351  -4.7131
    -4.7064  -4.7001  -3.7408  -3.7343  -3.1911  -3.1858  -2.7041  -2.6992
    -2.6879  -2.6825  -2.6678  -2.6659  -2.6600  -2.6555  -2.6484  -2.6449
    -2.6285  -2.6269  -0.4136  -0.3898  -0.3419  -0.3347  -0.2694  -0.2665
    -0.2433  -0.1972  -0.1916  -0.1643  -0.1040  -0.0933   0.0389   0.0684
     0.2063   0.2327   0.2728   0.3039   0.3126   0.3339   0.3483   0.3766
     0.4295   0.4504   0.4679   0.4773   0.7273   0.7355   0.7507   0.7936
     0.8191   0.8460   0.8779   0.8894   0.9095   0.9167   0.9749   0.9810
     1.0147   1.0311   1.0685   1.0862   1.1189   1.1477   1.1550   1.1664
     1.2278   1.2503   1.2956   1.3163   1.3529   1.3560   1.3791   1.3952
     1.4188   1.4338   1.4817   1.4853   1.5097   1.5136   1.5403   1.5651
     1.5878   1.5995   1.6523   1.6697   1.7189   1.7196   1.7772   1.7791
     1.8339   1.8387   1.8568   1.8650

          k =-0.1280-0.1277 0.1253 (297954 PWs)   bands (ev):

   -17.7719 -17.7625 -17.4900 -17.4842 -17.4541 -17.4275 -17.3957 -17.3844
   -15.6331 -15.6330 -14.1232 -14.1229 -14.1122 -14.1104 -14.1017 -14.1000
   -14.0981 -14.0976 -14.0954 -14.0914 -14.0889 -14.0868 -14.0790 -14.0787
   -14.0777 -14.0773 -14.0771 -14.0757 -14.0756 -14.0751 -14.0724 -14.0718
   -14.0693 -14.0687 -14.0635 -14.0618 -14.0581 -14.0581 -14.0560 -14.0559
   -14.0553 -14.0552 -14.0549 -14.0529 -14.0528 -14.0522 -14.0432 -14.0413
   -14.0412 -14.0406 -10.4386 -10.4339 -10.3970 -10.3807 -10.3685 -10.3648
    -9.6359  -9.6269  -9.5192  -9.4002  -9.3712  -9.3261  -9.2718  -9.2266
    -9.2115  -9.1824  -9.1338  -9.1245  -9.0828  -9.0440  -9.0322  -9.0123
    -9.0084  -9.0047  -8.9814  -8.9761  -8.9311  -8.8822  -8.8556  -8.8354
    -8.8001  -8.7877  -7.6151  -7.6098  -7.0431  -7.0377  -6.9151  -6.9105
    -6.8972  -6.8799  -6.8554  -6.8490  -6.8390  -6.8369  -6.8192  -6.8162
    -6.7902  -6.7812  -5.7322  -5.3237  -5.2982  -5.2916  -5.2751  -5.2622
    -4.8922  -4.8668  -4.8591  -4.7963  -4.7706  -4.7463  -4.7248  -4.7165
    -4.7076  -4.4315  -3.7396  -3.7332  -3.1911  -3.1855  -2.7092  -2.6983
    -2.6895  -2.6807  -2.6666  -2.6633  -2.6564  -2.6524  -2.6465  -2.6445
    -2.6406  -2.6330  -0.8016  -0.7616  -0.6749  -0.6709  -0.6364  -0.5737
    -0.5723  -0.5470  -0.5009  -0.4267  -0.4221  -0.3609  -0.0077   0.0894
     0.3857   0.3909   0.4334   0.4698   0.4954   0.5035   0.5615   0.6133
     0.6700   0.6759   0.7292   0.7641   0.8180   0.8705   0.8770   0.9165
     0.9446   0.9679   1.0111   1.0183   1.0471   1.0666   1.0981   1.1014
     1.1225   1.1303   1.1543   1.1599   1.1630   1.2008   1.2065   1.2428
     1.2639   1.2944   1.3209   1.3423   1.3538   1.3692   1.4083   1.4189
     1.4413   1.4489   1.4682   1.4874   1.5128   1.5250   1.5609   1.5926
     1.6213   1.6527   1.6627   1.7394   1.7413   1.8331   1.8509   1.8809
     1.9360   1.9691   2.0011   2.2162

          k =-0.1280 0.1277-0.1253 (297954 PWs)   bands (ev):

   -17.7719 -17.7625 -17.4900 -17.4842 -17.4541 -17.4275 -17.3957 -17.3844
   -15.6331 -15.6330 -14.1232 -14.1229 -14.1122 -14.1104 -14.1017 -14.1001
   -14.0981 -14.0976 -14.0954 -14.0914 -14.0889 -14.0868 -14.0790 -14.0787
   -14.0777 -14.0772 -14.0771 -14.0757 -14.0756 -14.0751 -14.0724 -14.0718
   -14.0693 -14.0687 -14.0635 -14.0618 -14.0581 -14.0581 -14.0560 -14.0559
   -14.0553 -14.0552 -14.0549 -14.0529 -14.0528 -14.0522 -14.0432 -14.0413
   -14.0412 -14.0406 -10.4389 -10.4340 -10.3970 -10.3807 -10.3683 -10.3643
    -9.6370  -9.6269  -9.5203  -9.3985  -9.3673  -9.3227  -9.2787  -9.2246
    -9.2159  -9.1804  -9.1355  -9.1191  -9.0972  -9.0375  -9.0281  -9.0122
    -9.0074  -8.9909  -8.9867  -8.9758  -8.9414  -8.8833  -8.8549  -8.8380
    -8.7986  -8.7851  -7.6152  -7.6097  -7.0431  -7.0378  -6.9152  -6.9104
    -6.8971  -6.8799  -6.8553  -6.8486  -6.8390  -6.8374  -6.8193  -6.8162
    -6.7901  -6.7812  -5.7323  -5.3207  -5.2972  -5.2919  -5.2784  -5.2629
    -4.8917  -4.8715  -4.8556  -4.7978  -4.7742  -4.7448  -4.7229  -4.7159
    -4.7052  -4.4317  -3.7396  -3.7331  -3.1911  -3.1855  -2.7095  -2.6983
    -2.6899  -2.6794  -2.6675  -2.6636  -2.6569  -2.6523  -2.6461  -2.6442
    -2.6400  -2.6331  -0.8037  -0.7620  -0.7171  -0.6748  -0.5960  -0.5792
    -0.5728  -0.5437  -0.4947  -0.4163  -0.4150  -0.3629  -0.0070   0.0895
     0.3771   0.4038   0.4384   0.4656   0.4870   0.5080   0.5523   0.6184
     0.6667   0.6683   0.7148   0.7753   0.8098   0.8593   0.8793   0.9128
     0.9348   0.9729   1.0117   1.0168   1.0396   1.0408   1.0864   1.1137
     1.1181   1.1353   1.1502   1.1735   1.1816   1.2105   1.2363   1.2458
     1.2733   1.2869   1.3157   1.3447   1.3505   1.3981   1.4077   1.4224
     1.4356   1.4612   1.4741   1.4815   1.4940   1.5162   1.5638   1.5664
     1.6293   1.6567   1.6597   1.7365   1.7425   1.8335   1.8464   1.8744
     1.9352   1.9672   2.0169   2.2255

          k = 0.1280-0.1277-0.1253 (297954 PWs)   bands (ev):

   -17.7719 -17.7625 -17.4900 -17.4842 -17.4541 -17.4275 -17.3957 -17.3844
   -15.6331 -15.6330 -14.1232 -14.1229 -14.1122 -14.1104 -14.1017 -14.1000
   -14.0981 -14.0976 -14.0953 -14.0914 -14.0889 -14.0868 -14.0790 -14.0787
   -14.0777 -14.0772 -14.0771 -14.0757 -14.0756 -14.0751 -14.0724 -14.0718
   -14.0693 -14.0687 -14.0635 -14.0618 -14.0581 -14.0581 -14.0560 -14.0559
   -14.0553 -14.0552 -14.0549 -14.0529 -14.0528 -14.0522 -14.0432 -14.0413
   -14.0412 -14.0406 -10.4389 -10.4340 -10.3970 -10.3807 -10.3683 -10.3643
    -9.6371  -9.6269  -9.5201  -9.3987  -9.3668  -9.3232  -9.2789  -9.2250
    -9.2159  -9.1799  -9.1352  -9.1184  -9.0979  -9.0366  -9.0287  -9.0127
    -9.0073  -8.9910  -8.9874  -8.9756  -8.9411  -8.8833  -8.8546  -8.8379
    -8.7989  -8.7851  -7.6152  -7.6097  -7.0431  -7.0378  -6.9152  -6.9104
    -6.8971  -6.8799  -6.8553  -6.8485  -6.8394  -6.8369  -6.8193  -6.8162
    -6.7901  -6.7812  -5.7323  -5.3210  -5.2970  -5.2919  -5.2782  -5.2630
    -4.8917  -4.8727  -4.8546  -4.7978  -4.7741  -4.7449  -4.7229  -4.7159
    -4.7052  -4.4316  -3.7396  -3.7331  -3.1911  -3.1855  -2.7099  -2.6985
    -2.6898  -2.6791  -2.6671  -2.6631  -2.6566  -2.6525  -2.6468  -2.6445
    -2.6396  -2.6331  -0.8044  -0.7618  -0.7183  -0.6751  -0.5947  -0.5793
    -0.5729  -0.5425  -0.4942  -0.4166  -0.4151  -0.3630  -0.0071   0.0896
     0.3775   0.4038   0.4387   0.4647   0.4868   0.5072   0.5530   0.6175
     0.6660   0.6688   0.7126   0.7705   0.8117   0.8667   0.8805   0.9119
     0.9332   0.9714   1.0172   1.0236   1.0397   1.0413   1.0863   1.1116
     1.1172   1.1334   1.1487   1.1744   1.1793   1.2055   1.2277   1.2444
     1.2719   1.2936   1.3129   1.3450   1.3564   1.4001   1.4069   1.4236
     1.4348   1.4626   1.4712   1.4828   1.4936   1.5167   1.5639   1.5670
     1.6292   1.6575   1.6599   1.7360   1.7418   1.8331   1.8474   1.8752
     1.9350   1.9649   2.0175   2.2267

          k =-0.1280-0.1277 0.3760 (297996 PWs)   bands (ev):

   -17.7719 -17.7625 -17.4900 -17.4842 -17.4541 -17.4275 -17.3957 -17.3844
   -15.6331 -15.6330 -14.1212 -14.1203 -14.1148 -14.1124 -14.1009 -14.0998
   -14.0973 -14.0957 -14.0953 -14.0915 -14.0907 -14.0887 -14.0790 -14.0787
   -14.0777 -14.0772 -14.0771 -14.0757 -14.0756 -14.0751 -14.0724 -14.0718
   -14.0693 -14.0687 -14.0635 -14.0618 -14.0581 -14.0581 -14.0559 -14.0559
   -14.0553 -14.0552 -14.0549 -14.0529 -14.0528 -14.0522 -14.0432 -14.0413
   -14.0412 -14.0406 -10.4383 -10.4338 -10.3970 -10.3808 -10.3684 -10.3649
    -9.6298  -9.6237  -9.4944  -9.4394  -9.3653  -9.3115  -9.3092  -9.2562
    -9.2400  -9.2198  -9.0700  -9.0679  -9.0523  -9.0387  -9.0300  -9.0223
    -9.0188  -9.0056  -8.9635  -8.9450  -8.9260  -8.8978  -8.8883  -8.8624
    -8.7958  -8.7910  -7.6148  -7.6108  -7.0431  -7.0378  -6.9126  -6.9084
    -6.8971  -6.8801  -6.8550  -6.8458  -6.8386  -6.8343  -6.8241  -6.8218
    -6.7894  -6.7808  -5.6098  -5.4222  -5.2919  -5.2900  -5.2028  -5.1621
    -5.0161  -4.9899  -4.8129  -4.7954  -4.7731  -4.7490  -4.7247  -4.7125
    -4.6966  -4.5713  -3.7398  -3.7334  -3.1910  -3.1856  -2.7043  -2.6985
    -2.6870  -2.6830  -2.6722  -2.6707  -2.6615  -2.6553  -2.6460  -2.6415
    -2.6293  -2.6261  -0.6455  -0.6182  -0.6124  -0.5707  -0.5126  -0.4772
    -0.4711  -0.4397  -0.3222  -0.3138  -0.2431  -0.1782   0.0015   0.0644
     0.2414   0.2916   0.3533   0.3994   0.4593   0.4663   0.4878   0.5199
     0.5222   0.5469   0.5826   0.6200   0.6234   0.6564   0.8475   0.8789
     0.8888   0.9196   0.9969   0.9992   1.0103   1.0266   1.0546   1.0683
     1.0977   1.1095   1.1421   1.1461   1.2027   1.2107   1.2636   1.2768
     1.3099   1.3196   1.3410   1.3533   1.3593   1.3747   1.4249   1.4379
     1.4454   1.4640   1.4800   1.4950   1.5069   1.5149   1.5595   1.5675
     1.6147   1.6161   1.6580   1.6981   1.7161   1.7818   1.7937   1.8050
     1.8603   1.8612   2.0093   2.0585

          k =-0.1280 0.1277-0.3760 (297996 PWs)   bands (ev):

   -17.7719 -17.7625 -17.4900 -17.4842 -17.4541 -17.4275 -17.3957 -17.3844
   -15.6331 -15.6330 -14.1212 -14.1203 -14.1148 -14.1124 -14.1009 -14.0998
   -14.0973 -14.0957 -14.0953 -14.0915 -14.0908 -14.0887 -14.0790 -14.0788
   -14.0777 -14.0772 -14.0771 -14.0757 -14.0756 -14.0751 -14.0724 -14.0718
   -14.0693 -14.0687 -14.0635 -14.0618 -14.0581 -14.0581 -14.0559 -14.0559
   -14.0553 -14.0552 -14.0549 -14.0529 -14.0528 -14.0522 -14.0432 -14.0413
   -14.0412 -14.0406 -10.4386 -10.4340 -10.3970 -10.3808 -10.3681 -10.3646
    -9.6302  -9.6239  -9.4960  -9.4397  -9.3632  -9.3101  -9.3041  -9.2577
    -9.2402  -9.2247  -9.0722  -9.0641  -9.0581  -9.0407  -9.0250  -9.0229
    -9.0180  -9.0010  -8.9682  -8.9410  -8.9246  -8.9046  -8.8845  -8.8672
    -8.7942  -8.7889  -7.6148  -7.6108  -7.0431  -7.0378  -6.9126  -6.9084
    -6.8971  -6.8801  -6.8550  -6.8457  -6.8385  -6.8345  -6.8242  -6.8219
    -6.7894  -6.7808  -5.6096  -5.4215  -5.2923  -5.2903  -5.2003  -5.1656
    -5.0142  -4.9934  -4.8117  -4.7963  -4.7742  -4.7473  -4.7241  -4.7123
    -4.6954  -4.5717  -3.7398  -3.7334  -3.1910  -3.1856  -2.7047  -2.6981
    -2.6877  -2.6815  -2.6733  -2.6700  -2.6625  -2.6549  -2.6463  -2.6410
    -2.6295  -2.6258  -0.6846  -0.6453  -0.5835  -0.5454  -0.5044  -0.4748
    -0.4687  -0.4296  -0.3287  -0.3038  -0.2463  -0.1784   0.0006   0.0648
     0.2395   0.2908   0.3549   0.4081   0.4530   0.4670   0.4941   0.5099
     0.5156   0.5419   0.5933   0.6078   0.6189   0.6663   0.8460   0.8817
     0.8856   0.8962   0.9623   0.9968   1.0203   1.0250   1.0507   1.0745
     1.0815   1.1112   1.1315   1.1549   1.2400   1.2443   1.2689   1.2884
     1.3033   1.3141   1.3449   1.3567   1.3673   1.3726   1.4124   1.4218
     1.4592   1.4691   1.4852   1.4890   1.4985   1.5170   1.5586   1.5682
     1.6192   1.6243   1.6563   1.7044   1.7078   1.7819   1.7896   1.7959
     1.8483   1.8489   2.0266   2.0717

          k = 0.1280-0.1277-0.3760 (297996 PWs)   bands (ev):

   -17.7719 -17.7625 -17.4900 -17.4842 -17.4541 -17.4275 -17.3957 -17.3844
   -15.6331 -15.6330 -14.1212 -14.1203 -14.1148 -14.1124 -14.1009 -14.0998
   -14.0973 -14.0957 -14.0952 -14.0915 -14.0907 -14.0887 -14.0790 -14.0788
   -14.0777 -14.0772 -14.0771 -14.0757 -14.0756 -14.0751 -14.0724 -14.0718
   -14.0693 -14.0687 -14.0635 -14.0618 -14.0581 -14.0581 -14.0559 -14.0559
   -14.0553 -14.0552 -14.0549 -14.0529 -14.0528 -14.0522 -14.0432 -14.0413
   -14.0412 -14.0406 -10.4386 -10.4340 -10.3970 -10.3808 -10.3681 -10.3646
    -9.6303  -9.6239  -9.4957  -9.4399  -9.3632  -9.3102  -9.3043  -9.2578
    -9.2403  -9.2243  -9.0728  -9.0638  -9.0571  -9.0382  -9.0274  -9.0239
    -9.0162  -9.0023  -8.9698  -8.9392  -8.9243  -8.9055  -8.8841  -8.8670
    -8.7946  -8.7887  -7.6148  -7.6108  -7.0431  -7.0378  -6.9126  -6.9084
    -6.8971  -6.8801  -6.8550  -6.8456  -6.8388  -6.8341  -6.8242  -6.8219
    -6.7894  -6.7808  -5.6097  -5.4216  -5.2923  -5.2903  -5.2002  -5.1655
    -5.0142  -4.9936  -4.8116  -4.7964  -4.7739  -4.7475  -4.7241  -4.7123
    -4.6953  -4.5716  -3.7398  -3.7334  -3.1910  -3.1856  -2.7051  -2.6984
    -2.6879  -2.6812  -2.6727  -2.6702  -2.6616  -2.6551  -2.6461  -2.6419
    -2.6292  -2.6259  -0.6864  -0.6441  -0.5830  -0.5502  -0.5002  -0.4779
    -0.4662  -0.4268  -0.3281  -0.3069  -0.2444  -0.1778   0.0005   0.0650
     0.2381   0.2906   0.3527   0.4073   0.4536   0.4659   0.4942   0.5112
     0.5179   0.5429   0.5899   0.6077   0.6204   0.6663   0.8453   0.8803
     0.8890   0.8953   0.9660   0.9963   1.0210   1.0277   1.0510   1.0736
     1.0841   1.1040   1.1342   1.1515   1.2326   1.2465   1.2700   1.2834
     1.3035   1.3164   1.3483   1.3556   1.3655   1.3740   1.4163   1.4205
     1.4581   1.4720   1.4858   1.4916   1.4982   1.5115   1.5633   1.5684
     1.6197   1.6235   1.6535   1.7045   1.7091   1.7799   1.7899   1.7964
     1.8482   1.8489   2.0256   2.0735

          k =-0.1280-0.3832 0.1253 (297992 PWs)   bands (ev):

   -17.7719 -17.7625 -17.4900 -17.4842 -17.4541 -17.4275 -17.3957 -17.3844
   -15.6331 -15.6330 -14.1231 -14.1228 -14.1121 -14.1103 -14.1008 -14.1000
   -14.0975 -14.0972 -14.0947 -14.0917 -14.0889 -14.0873 -14.0793 -14.0788
   -14.0778 -14.0775 -14.0772 -14.0763 -14.0762 -14.0752 -14.0725 -14.0718
   -14.0693 -14.0687 -14.0635 -14.0618 -14.0581 -14.0581 -14.0560 -14.0559
   -14.0553 -14.0552 -14.0549 -14.0529 -14.0528 -14.0522 -14.0432 -14.0413
   -14.0412 -14.0406 -10.4381 -10.4336 -10.3966 -10.3799 -10.3691 -10.3661
    -9.6355  -9.6296  -9.4811  -9.4285  -9.3614  -9.3031  -9.3018  -9.2556
    -9.2091  -9.2064  -9.1433  -9.1360  -9.0720  -9.0664  -9.0251  -9.0146
    -9.0022  -8.9738  -8.9693  -8.9570  -8.8863  -8.8747  -8.8645  -8.8352
    -8.8230  -8.8090  -7.6141  -7.6102  -7.0430  -7.0377  -6.9148  -6.9107
    -6.8967  -6.8794  -6.8555  -6.8490  -6.8390  -6.8380  -6.8194  -6.8164
    -6.7903  -6.7813  -5.6160  -5.4413  -5.2932  -5.2910  -5.1849  -5.1609
    -5.0215  -4.9934  -4.8129  -4.7960  -4.7555  -4.7448  -4.7255  -4.7171
    -4.6832  -4.5548  -3.7400  -3.7336  -3.1910  -3.1856  -2.7031  -2.6972
    -2.6837  -2.6816  -2.6653  -2.6619  -2.6569  -2.6538  -2.6508  -2.6476
    -2.6410  -2.6366  -0.7720  -0.7534  -0.6609  -0.6310  -0.6030  -0.5789
    -0.5287  -0.4713  -0.2986  -0.1866  -0.1097  -0.0587   0.0650   0.0719
     0.1919   0.3261   0.3864   0.4216   0.4307   0.4646   0.5079   0.5577
     0.5613   0.5864   0.6311   0.6734   0.7245   0.7869   0.8245   0.8489
     0.8809   0.8955   0.9885   0.9962   1.0330   1.0474   1.0755   1.0784
     1.0985   1.1088   1.1529   1.1714   1.1872   1.1892   1.2204   1.2411
     1.2570   1.2749   1.3129   1.3383   1.3574   1.3624   1.4053   1.4122
     1.4351   1.4592   1.4707   1.5059   1.5573   1.5588   1.5773   1.5827
     1.5952   1.6150   1.6618   1.6888   1.7512   1.8168   1.8185   1.8303
     1.8658   1.8722   1.9973   2.0551

          k =-0.1280 0.3832-0.1253 (297992 PWs)   bands (ev):

   -17.7719 -17.7625 -17.4900 -17.4842 -17.4541 -17.4275 -17.3957 -17.3844
   -15.6331 -15.6330 -14.1231 -14.1228 -14.1121 -14.1103 -14.1008 -14.1000
   -14.0975 -14.0972 -14.0947 -14.0917 -14.0889 -14.0873 -14.0793 -14.0788
   -14.0777 -14.0775 -14.0772 -14.0764 -14.0762 -14.0752 -14.0725 -14.0718
   -14.0693 -14.0687 -14.0635 -14.0618 -14.0581 -14.0581 -14.0560 -14.0559
   -14.0553 -14.0552 -14.0549 -14.0529 -14.0528 -14.0522 -14.0432 -14.0413
   -14.0412 -14.0406 -10.4384 -10.4337 -10.3967 -10.3799 -10.3689 -10.3656
    -9.6366  -9.6295  -9.4841  -9.4263  -9.3442  -9.3201  -9.3025  -9.2491
    -9.2186  -9.2028  -9.1419  -9.1364  -9.0880  -9.0503  -9.0235  -9.0160
    -8.9950  -8.9755  -8.9692  -8.9586  -8.8856  -8.8825  -8.8653  -8.8382
    -8.8219  -8.8029  -7.6142  -7.6101  -7.0431  -7.0377  -6.9149  -6.9106
    -6.8965  -6.8795  -6.8555  -6.8486  -6.8390  -6.8385  -6.8194  -6.8163
    -6.7902  -6.7813  -5.6162  -5.4405  -5.2929  -5.2912  -5.1869  -5.1601
    -5.0197  -4.9954  -4.8148  -4.7972  -4.7590  -4.7425  -4.7231  -4.7166
    -4.6798  -4.5559  -3.7400  -3.7336  -3.1910  -3.1856  -2.7036  -2.6971
    -2.6848  -2.6793  -2.6658  -2.6630  -2.6579  -2.6543  -2.6497  -2.6462
    -2.6408  -2.6368  -0.7799  -0.7450  -0.6620  -0.6525  -0.6101  -0.5689
    -0.5348  -0.4646  -0.2804  -0.1696  -0.0989  -0.0556   0.0684   0.0768
     0.1898   0.2932   0.3913   0.4042   0.4427   0.4786   0.4802   0.5451
     0.5690   0.5974   0.6141   0.6914   0.7271   0.7579   0.8105   0.8428
     0.8717   0.9064   0.9775   1.0115   1.0351   1.0495   1.0626   1.0786
     1.1090   1.1304   1.1454   1.1736   1.1864   1.2211   1.2248   1.2331
     1.2784   1.2837   1.3204   1.3301   1.3381   1.3645   1.4093   1.4128
     1.4495   1.4623   1.4962   1.5007   1.5174   1.5360   1.5472   1.5815
     1.6282   1.6296   1.6613   1.6865   1.7401   1.8003   1.8024   1.8412
     1.8545   1.9067   1.9855   2.0754

          k = 0.1280-0.3832-0.1253 (297992 PWs)   bands (ev):

   -17.7719 -17.7625 -17.4900 -17.4842 -17.4541 -17.4275 -17.3957 -17.3844
   -15.6331 -15.6330 -14.1231 -14.1228 -14.1121 -14.1103 -14.1008 -14.1000
   -14.0975 -14.0972 -14.0947 -14.0917 -14.0889 -14.0873 -14.0793 -14.0788
   -14.0777 -14.0775 -14.0772 -14.0764 -14.0762 -14.0752 -14.0725 -14.0718
   -14.0693 -14.0687 -14.0635 -14.0618 -14.0581 -14.0581 -14.0560 -14.0559
   -14.0553 -14.0552 -14.0549 -14.0529 -14.0528 -14.0522 -14.0432 -14.0413
   -14.0412 -14.0406 -10.4384 -10.4338 -10.3967 -10.3799 -10.3689 -10.3656
    -9.6367  -9.6294  -9.4840  -9.4261  -9.3440  -9.3203  -9.3019  -9.2522
    -9.2201  -9.1984  -9.1413  -9.1372  -9.0879  -9.0502  -9.0235  -9.0163
    -8.9958  -8.9750  -8.9692  -8.9589  -8.8852  -8.8833  -8.8651  -8.8356
    -8.8245  -8.8026  -7.6142  -7.6101  -7.0431  -7.0377  -6.9149  -6.9106
    -6.8965  -6.8795  -6.8554  -6.8485  -6.8396  -6.8379  -6.8194  -6.8164
    -6.7902  -6.7814  -5.6162  -5.4404  -5.2929  -5.2911  -5.1869  -5.1600
    -5.0201  -4.9952  -4.8151  -4.7972  -4.7589  -4.7425  -4.7231  -4.7166
    -4.6795  -4.5559  -3.7400  -3.7336  -3.1910  -3.1856  -2.7040  -2.6974
    -2.6854  -2.6781  -2.6659  -2.6615  -2.6584  -2.6540  -2.6501  -2.6476
    -2.6403  -2.6366  -0.7804  -0.7440  -0.6625  -0.6551  -0.6085  -0.5683
    -0.5353  -0.4642  -0.2796  -0.1685  -0.0989  -0.0557   0.0684   0.0764
     0.1894   0.2936   0.3921   0.4042   0.4425   0.4768   0.4794   0.5447
     0.5710   0.5974   0.6111   0.6931   0.7261   0.7588   0.8094   0.8444
     0.8713   0.9074   0.9750   1.0126   1.0346   1.0534   1.0672   1.0789
     1.1087   1.1287   1.1481   1.1735   1.1816   1.2165   1.2232   1.2330
     1.2725   1.2873   1.3214   1.3270   1.3385   1.3665   1.4118   1.4136
     1.4463   1.4629   1.4998   1.5007   1.5209   1.5336   1.5467   1.5821
     1.6280   1.6297   1.6632   1.6862   1.7396   1.7990   1.8016   1.8415
     1.8570   1.9039   1.9861   2.0759

          k =-0.1280-0.3832 0.3760 (297985 PWs)   bands (ev):

   -17.7719 -17.7625 -17.4900 -17.4842 -17.4541 -17.4275 -17.3957 -17.3844
   -15.6331 -15.6330 -14.1211 -14.1202 -14.1147 -14.1123 -14.1002 -14.0993
   -14.0967 -14.0954 -14.0946 -14.0916 -14.0911 -14.0893 -14.0793 -14.0788
   -14.0778 -14.0775 -14.0772 -14.0763 -14.0762 -14.0752 -14.0725 -14.0718
   -14.0693 -14.0687 -14.0635 -14.0618 -14.0581 -14.0581 -14.0559 -14.0559
   -14.0553 -14.0552 -14.0549 -14.0529 -14.0528 -14.0522 -14.0432 -14.0413
   -14.0412 -14.0406 -10.4380 -10.4335 -10.3966 -10.3799 -10.3692 -10.3662
    -9.6312  -9.6254  -9.4599  -9.4290  -9.3602  -9.3292  -9.3241  -9.2863
    -9.2551  -9.2340  -9.0755  -9.0688  -9.0478  -9.0445  -9.0313  -9.0212
    -8.9966  -8.9928  -8.9508  -8.9474  -8.9140  -8.8958  -8.8628  -8.8479
    -8.8188  -8.8143  -7.6143  -7.6106  -7.0431  -7.0377  -6.9126  -6.9085
    -6.8967  -6.8796  -6.8552  -6.8462  -6.8389  -6.8349  -6.8241  -6.8216
    -6.7895  -6.7809  -5.4969  -5.3320  -5.3148  -5.2915  -5.2778  -5.1382
    -5.0743  -4.9271  -4.8974  -4.8089  -4.7775  -4.7643  -4.7296  -4.7134
    -4.7058  -4.6668  -3.7402  -3.7338  -3.1910  -3.1856  -2.7032  -2.6993
    -2.6842  -2.6818  -2.6699  -2.6667  -2.6623  -2.6558  -2.6500  -2.6453
    -2.6285  -2.6265  -0.6064  -0.5830  -0.5383  -0.5076  -0.4127  -0.3716
    -0.3058  -0.2337  -0.2166  -0.1766  -0.1132  -0.0887   0.0502   0.0582
     0.2042   0.2152   0.2929   0.3257   0.3703   0.3942   0.4046   0.4460
     0.4932   0.5073   0.5525   0.5606   0.6953   0.7044   0.7635   0.7937
     0.8339   0.8354   0.8983   0.9028   0.9329   0.9354   1.0190   1.0296
     1.0579   1.0633   1.1274   1.1341   1.1498   1.1633   1.2359   1.2520
     1.3011   1.3047   1.3308   1.3495   1.3738   1.3934   1.4243   1.4466
     1.4811   1.4820   1.4940   1.5027   1.5358   1.5451   1.5651   1.5676
     1.5941   1.6115   1.6549   1.6663   1.7117   1.7276   1.7983   1.8069
     1.8398   1.8426   1.8789   1.8926

          k =-0.1280 0.3832-0.3760 (297985 PWs)   bands (ev):

   -17.7719 -17.7625 -17.4900 -17.4842 -17.4541 -17.4275 -17.3957 -17.3844
   -15.6331 -15.6330 -14.1211 -14.1202 -14.1147 -14.1123 -14.1002 -14.0993
   -14.0967 -14.0954 -14.0946 -14.0916 -14.0911 -14.0893 -14.0793 -14.0788
   -14.0777 -14.0775 -14.0772 -14.0764 -14.0762 -14.0752 -14.0725 -14.0718
   -14.0693 -14.0687 -14.0635 -14.0618 -14.0581 -14.0581 -14.0559 -14.0559
   -14.0553 -14.0552 -14.0549 -14.0529 -14.0528 -14.0522 -14.0432 -14.0413
   -14.0412 -14.0406 -10.4382 -10.4337 -10.3966 -10.3799 -10.3688 -10.3658
    -9.6316  -9.6257  -9.4631  -9.4283  -9.3601  -9.3280  -9.3111  -9.2929
    -9.2509  -9.2435  -9.0755  -9.0683  -9.0565  -9.0419  -9.0245  -9.0216
    -8.9982  -8.9872  -8.9595  -8.9422  -8.9120  -8.8929  -8.8710  -8.8540
    -8.8152  -8.8090  -7.6143  -7.6106  -7.0431  -7.0378  -6.9127  -6.9085
    -6.8967  -6.8796  -6.8552  -6.8461  -6.8389  -6.8349  -6.8242  -6.8216
    -6.7895  -6.7809  -5.4964  -5.3318  -5.3129  -5.2924  -5.2788  -5.1388
    -5.0769  -4.9262  -4.8991  -4.8063  -4.7790  -4.7626  -4.7298  -4.7131
    -4.7042  -4.6680  -3.7402  -3.7338  -3.1910  -3.1856  -2.7037  -2.6988
    -2.6849  -2.6803  -2.6694  -2.6679  -2.6626  -2.6558  -2.6499  -2.6449
    -2.6285  -2.6263  -0.6272  -0.5950  -0.5374  -0.4982  -0.4100  -0.3603
    -0.3049  -0.2346  -0.2112  -0.1488  -0.1091  -0.0837   0.0528   0.0584
     0.1988   0.2078   0.2904   0.3252   0.3714   0.3757   0.3940   0.4332
     0.4964   0.5039   0.5629   0.5666   0.6994   0.7028   0.7625   0.7779
     0.8201   0.8434   0.8947   0.9068   0.9145   0.9270   1.0155   1.0201
     1.0575   1.0657   1.1223   1.1379   1.1832   1.1974   1.2399   1.2560
     1.2985   1.3202   1.3343   1.3377   1.3787   1.3823   1.4434   1.4472
     1.4676   1.4864   1.4944   1.5027   1.5232   1.5353   1.5555   1.5666
     1.6105   1.6128   1.6620   1.6742   1.7266   1.7504   1.7731   1.7752
     1.7902   1.8107   1.9159   1.9403

          k = 0.1280-0.3832-0.3760 (297985 PWs)   bands (ev):

   -17.7719 -17.7625 -17.4900 -17.4842 -17.4541 -17.4275 -17.3957 -17.3844
   -15.6331 -15.6330 -14.1211 -14.1202 -14.1147 -14.1123 -14.1002 -14.0993
   -14.0967 -14.0954 -14.0945 -14.0917 -14.0910 -14.0893 -14.0793 -14.0788
   -14.0777 -14.0775 -14.0772 -14.0764 -14.0762 -14.0752 -14.0725 -14.0718
   -14.0693 -14.0687 -14.0635 -14.0618 -14.0581 -14.0581 -14.0559 -14.0559
   -14.0553 -14.0552 -14.0549 -14.0529 -14.0528 -14.0522 -14.0432 -14.0413
   -14.0412 -14.0406 -10.4382 -10.4337 -10.3966 -10.3799 -10.3689 -10.3658
    -9.6317  -9.6256  -9.4631  -9.4279  -9.3589  -9.3293  -9.3114  -9.2944
    -9.2485  -9.2442  -9.0769  -9.0669  -9.0556  -9.0401  -9.0261  -9.0224
    -8.9985  -8.9877  -8.9604  -8.9403  -8.9133  -8.8921  -8.8722  -8.8518
    -8.8175  -8.8078  -7.6143  -7.6106  -7.0431  -7.0378  -6.9126  -6.9085
    -6.8967  -6.8797  -6.8552  -6.8460  -6.8392  -6.8347  -6.8242  -6.8217
    -6.7895  -6.7809  -5.4965  -5.3331  -5.3104  -5.2924  -5.2797  -5.1389
    -5.0765  -4.9280  -4.8981  -4.8062  -4.7786  -4.7628  -4.7298  -4.7131
    -4.7038  -4.6683  -3.7402  -3.7338  -3.1910  -3.1856  -2.7041  -2.6990
    -2.6853  -2.6798  -2.6697  -2.6665  -2.6627  -2.6554  -2.6501  -2.6458
    -2.6286  -2.6262  -0.6285  -0.5921  -0.5399  -0.4983  -0.4126  -0.3576
    -0.3071  -0.2406  -0.2014  -0.1407  -0.1125  -0.0836   0.0519   0.0566
     0.1982   0.2033   0.2935   0.3192   0.3718   0.3811   0.3976   0.4254
     0.4992   0.5058   0.5626   0.5658   0.6950   0.7050   0.7625   0.7780
     0.8226   0.8443   0.8918   0.9100   0.9115   0.9290   1.0180   1.0211
     1.0562   1.0648   1.1269   1.1336   1.1803   1.1958   1.2379   1.2547
     1.3085   1.3133   1.3307   1.3387   1.3778   1.3862   1.4400   1.4519
     1.4689   1.4839   1.4947   1.5050   1.5261   1.5309   1.5563   1.5682
     1.6101   1.6142   1.6620   1.6748   1.7269   1.7459   1.7742   1.7751
     1.7899   1.8111   1.9147   1.9419

          k =-0.3841-0.1277 0.1253 (297958 PWs)   bands (ev):

   -17.7719 -17.7625 -17.4900 -17.4842 -17.4541 -17.4275 -17.3957 -17.3844
   -15.6331 -15.6330 -14.1231 -14.1228 -14.1120 -14.1103 -14.1007 -14.0991
   -14.0984 -14.0971 -14.0946 -14.0918 -14.0892 -14.0877 -14.0790 -14.0788
   -14.0778 -14.0776 -14.0771 -14.0764 -14.0761 -14.0752 -14.0725 -14.0718
   -14.0693 -14.0687 -14.0635 -14.0618 -14.0581 -14.0580 -14.0560 -14.0559
   -14.0553 -14.0552 -14.0549 -14.0529 -14.0528 -14.0522 -14.0432 -14.0413
   -14.0412 -14.0406 -10.4382 -10.4337 -10.3969 -10.3807 -10.3690 -10.3656
    -9.6261  -9.6202  -9.4976  -9.4528  -9.3540  -9.3042  -9.2977  -9.2471
    -9.2072  -9.2052  -9.1408  -9.1337  -9.0849  -9.0726  -9.0064  -9.0006
    -8.9897  -8.9846  -8.9708  -8.9655  -8.8856  -8.8760  -8.8729  -8.8319
    -8.8238  -8.8113  -7.6146  -7.6107  -7.0437  -7.0383  -6.9150  -6.9110
    -6.8971  -6.8801  -6.8554  -6.8477  -6.8392  -6.8365  -6.8187  -6.8157
    -6.7902  -6.7813  -5.6143  -5.4367  -5.2937  -5.2917  -5.1892  -5.1607
    -5.0241  -4.9897  -4.8070  -4.7947  -4.7635  -4.7477  -4.7231  -4.7115
    -4.6904  -4.5588  -3.7403  -3.7339  -3.1911  -3.1857  -2.7067  -2.7007
    -2.6870  -2.6845  -2.6648  -2.6633  -2.6550  -2.6516  -2.6474  -2.6459
    -2.6387  -2.6345  -0.7867  -0.7742  -0.6471  -0.6315  -0.6011  -0.5799
    -0.4456  -0.4137  -0.2831  -0.2408  -0.1806  -0.1008   0.0314   0.1205
     0.2225   0.3357   0.3938   0.4227   0.4303   0.4811   0.4832   0.5329
     0.5651   0.5877   0.6447   0.6688   0.7241   0.7807   0.8299   0.8685
     0.8806   0.9507   0.9689   0.9909   1.0032   1.0570   1.0943   1.0960
     1.1263   1.1337   1.1503   1.1605   1.1703   1.1928   1.2341   1.2394
     1.2718   1.3107   1.3223   1.3294   1.3450   1.3594   1.3752   1.3886
     1.3963   1.4020   1.4807   1.4842   1.5308   1.5327   1.5786   1.5867
     1.5894   1.6108   1.6594   1.7039   1.7476   1.7934   1.8456   1.8485
     1.8602   1.9064   1.9902   2.0543

          k =-0.3841 0.1277-0.1253 (297958 PWs)   bands (ev):

   -17.7719 -17.7625 -17.4900 -17.4842 -17.4541 -17.4275 -17.3957 -17.3844
   -15.6331 -15.6330 -14.1231 -14.1228 -14.1120 -14.1103 -14.1007 -14.0991
   -14.0984 -14.0971 -14.0946 -14.0918 -14.0892 -14.0877 -14.0790 -14.0788
   -14.0778 -14.0775 -14.0771 -14.0765 -14.0761 -14.0752 -14.0725 -14.0718
   -14.0693 -14.0687 -14.0635 -14.0618 -14.0581 -14.0580 -14.0560 -14.0559
   -14.0553 -14.0552 -14.0549 -14.0529 -14.0528 -14.0522 -14.0432 -14.0413
   -14.0412 -14.0406 -10.4385 -10.4339 -10.3970 -10.3807 -10.3689 -10.3651
    -9.6267  -9.6205  -9.5030  -9.4455  -9.3455  -9.3162  -9.2929  -9.2482
    -9.2175  -9.1972  -9.1386  -9.1355  -9.0974  -9.0591  -9.0049  -9.0015
    -8.9896  -8.9802  -8.9729  -8.9639  -8.8906  -8.8810  -8.8732  -8.8338
    -8.8235  -8.8047  -7.6147  -7.6106  -7.0437  -7.0384  -6.9151  -6.9109
    -6.8970  -6.8801  -6.8554  -6.8473  -6.8391  -6.8370  -6.8188  -6.8156
    -6.7901  -6.7813  -5.6145  -5.4359  -5.2936  -5.2917  -5.1915  -5.1598
    -5.0224  -4.9915  -4.8081  -4.7964  -4.7685  -4.7448  -4.7215  -4.7109
    -4.6856  -4.5601  -3.7403  -3.7339  -3.1911  -3.1857  -2.7071  -2.7006
    -2.6881  -2.6825  -2.6655  -2.6636  -2.6556  -2.6517  -2.6468  -2.6454
    -2.6379  -2.6349  -0.7927  -0.7691  -0.6552  -0.6446  -0.6079  -0.5658
    -0.4623  -0.4064  -0.2642  -0.2263  -0.1673  -0.0885   0.0292   0.1247
     0.2222   0.2997   0.4002   0.4132   0.4358   0.4656   0.4876   0.5210
     0.5706   0.5941   0.6387   0.6808   0.7278   0.7654   0.8072   0.8331
     0.9090   0.9281   0.9782   0.9989   1.0299   1.0342   1.0868   1.1185
     1.1225   1.1265   1.1585   1.1651   1.1908   1.1931   1.2440   1.2505
     1.2773   1.3053   1.3158   1.3368   1.3459   1.3673   1.3734   1.3889
     1.3963   1.4100   1.4797   1.5086   1.5102   1.5349   1.5428   1.5574
     1.5984   1.6317   1.6722   1.6878   1.7381   1.7996   1.8425   1.8482
     1.8551   1.9206   1.9769   2.0746

          k = 0.3841-0.1277-0.1253 (297958 PWs)   bands (ev):

   -17.7719 -17.7625 -17.4900 -17.4842 -17.4541 -17.4275 -17.3957 -17.3844
   -15.6331 -15.6330 -14.1231 -14.1228 -14.1120 -14.1103 -14.1007 -14.0991
   -14.0984 -14.0971 -14.0945 -14.0918 -14.0892 -14.0877 -14.0790 -14.0788
   -14.0778 -14.0775 -14.0771 -14.0765 -14.0761 -14.0752 -14.0725 -14.0718
   -14.0693 -14.0687 -14.0635 -14.0618 -14.0581 -14.0580 -14.0560 -14.0559
   -14.0553 -14.0552 -14.0549 -14.0529 -14.0528 -14.0522 -14.0432 -14.0413
   -14.0412 -14.0406 -10.4385 -10.4339 -10.3970 -10.3807 -10.3688 -10.3651
    -9.6267  -9.6205  -9.5026  -9.4458  -9.3455  -9.3164  -9.2940  -9.2455
    -9.2165  -9.2007  -9.1378  -9.1345  -9.0974  -9.0592  -9.0048  -9.0022
    -8.9859  -8.9844  -8.9756  -8.9609  -8.8873  -8.8839  -8.8734  -8.8331
    -8.8241  -8.8047  -7.6147  -7.6106  -7.0437  -7.0384  -6.9152  -6.9108
    -6.8970  -6.8801  -6.8554  -6.8472  -6.8394  -6.8367  -6.8188  -6.8157
    -6.7902  -6.7813  -5.6145  -5.4359  -5.2936  -5.2917  -5.1915  -5.1597
    -5.0226  -4.9914  -4.8079  -4.7964  -4.7682  -4.7450  -4.7215  -4.7109
    -4.6859  -4.5600  -3.7403  -3.7339  -3.1911  -3.1857  -2.7078  -2.7006
    -2.6876  -2.6827  -2.6650  -2.6632  -2.6553  -2.6518  -2.6481  -2.6451
    -2.6378  -2.6349  -0.7927  -0.7693  -0.6587  -0.6442  -0.6053  -0.5652
    -0.4619  -0.4068  -0.2634  -0.2257  -0.1681  -0.0886   0.0296   0.1256
     0.2219   0.3000   0.4010   0.4114   0.4342   0.4626   0.4893   0.5225
     0.5733   0.5940   0.6369   0.6780   0.7295   0.7659   0.8076   0.8298
     0.9132   0.9273   0.9778   1.0022   1.0325   1.0343   1.0854   1.1196
     1.1207   1.1316   1.1508   1.1684   1.1900   1.1917   1.2412   1.2472
     1.2735   1.3004   1.3213   1.3368   1.3463   1.3704   1.3745   1.3875
     1.4020   1.4102   1.4798   1.5057   1.5115   1.5309   1.5421   1.5614
     1.5993   1.6333   1.6728   1.6873   1.7337   1.8003   1.8428   1.8508
     1.8552   1.9210   1.9741   2.0761

          k =-0.3841-0.1277 0.3760 (298021 PWs)   bands (ev):

   -17.7719 -17.7625 -17.4900 -17.4842 -17.4541 -17.4275 -17.3957 -17.3844
   -15.6331 -15.6330 -14.1211 -14.1201 -14.1147 -14.1123 -14.1001 -14.0987
   -14.0966 -14.0959 -14.0941 -14.0921 -14.0912 -14.0899 -14.0789 -14.0789
   -14.0778 -14.0776 -14.0771 -14.0764 -14.0761 -14.0752 -14.0725 -14.0718
   -14.0694 -14.0687 -14.0635 -14.0618 -14.0581 -14.0580 -14.0559 -14.0559
   -14.0553 -14.0552 -14.0549 -14.0529 -14.0528 -14.0522 -14.0432 -14.0413
   -14.0412 -14.0406 -10.4381 -10.4336 -10.3970 -10.3807 -10.3691 -10.3656
    -9.6240  -9.6180  -9.4659  -9.4208  -9.4031  -9.3533  -9.3040  -9.2719
    -9.2506  -9.2304  -9.0717  -9.0659  -9.0402  -9.0378  -9.0204  -9.0172
    -9.0051  -8.9981  -8.9510  -8.9484  -8.9153  -8.9025  -8.8638  -8.8446
    -8.8229  -8.8169  -7.6149  -7.6112  -7.0437  -7.0384  -6.9127  -6.9087
    -6.8972  -6.8802  -6.8551  -6.8449  -6.8384  -6.8333  -6.8239  -6.8214
    -6.7893  -6.7807  -5.4949  -5.3270  -5.3094  -5.2922  -5.2832  -5.1348
    -5.0788  -4.9227  -4.9082  -4.8091  -4.7778  -4.7651  -4.7305  -4.7124
    -4.7057  -4.6692  -3.7404  -3.7340  -3.1911  -3.1857  -2.7034  -2.6994
    -2.6884  -2.6864  -2.6711  -2.6683  -2.6605  -2.6545  -2.6452  -2.6407
    -2.6295  -2.6272  -0.6027  -0.5694  -0.5283  -0.5099  -0.3680  -0.3363
    -0.3196  -0.2628  -0.2169  -0.2051  -0.1206  -0.1071   0.0277   0.0359
     0.2264   0.2514   0.3081   0.3101   0.3537   0.3761   0.4168   0.4423
     0.4690   0.5104   0.5781   0.5833   0.7086   0.7178   0.7732   0.7881
     0.8390   0.8466   0.9187   0.9291   0.9610   0.9684   0.9915   1.0335
     1.0466   1.0714   1.0752   1.1075   1.1420   1.1628   1.2272   1.2727
     1.3064   1.3202   1.3537   1.3591   1.3666   1.3783   1.4013   1.4062
     1.4562   1.4654   1.4837   1.4975   1.5109   1.5172   1.5683   1.5704
     1.5839   1.6127   1.6492   1.6725   1.7318   1.7356   1.7774   1.7858
     1.8353   1.8471   1.9098   1.9305

          k =-0.3841 0.1277-0.3760 (298021 PWs)   bands (ev):

   -17.7719 -17.7625 -17.4900 -17.4842 -17.4541 -17.4275 -17.3957 -17.3844
   -15.6331 -15.6330 -14.1211 -14.1201 -14.1147 -14.1123 -14.1001 -14.0987
   -14.0966 -14.0959 -14.0941 -14.0920 -14.0912 -14.0899 -14.0789 -14.0789
   -14.0778 -14.0776 -14.0771 -14.0765 -14.0761 -14.0752 -14.0725 -14.0718
   -14.0694 -14.0687 -14.0635 -14.0618 -14.0581 -14.0580 -14.0559 -14.0559
   -14.0553 -14.0552 -14.0549 -14.0529 -14.0528 -14.0522 -14.0432 -14.0413
   -14.0412 -14.0406 -10.4383 -10.4338 -10.3970 -10.3807 -10.3688 -10.3652
    -9.6243  -9.6182  -9.4715  -9.4137  -9.4050  -9.3504  -9.2939  -9.2824
    -9.2427  -9.2405  -9.0714  -9.0669  -9.0463  -9.0316  -9.0199  -9.0178
    -9.0047  -8.9936  -8.9599  -8.9400  -8.9178  -8.8976  -8.8719  -8.8521
    -8.8185  -8.8110  -7.6149  -7.6112  -7.0438  -7.0384  -6.9127  -6.9087
    -6.8972  -6.8802  -6.8551  -6.8448  -6.8383  -6.8335  -6.8240  -6.8215
    -6.7892  -6.7807  -5.4945  -5.3253  -5.3083  -5.2932  -5.2847  -5.1353
    -5.0813  -4.9213  -4.9106  -4.8066  -4.7795  -4.7629  -4.7305  -4.7125
    -4.7034  -4.6710  -3.7404  -3.7340  -3.1911  -3.1857  -2.7039  -2.6988
    -2.6894  -2.6850  -2.6713  -2.6681  -2.6615  -2.6540  -2.6455  -2.6401
    -2.6298  -2.6269  -0.6187  -0.5865  -0.5231  -0.5110  -0.3580  -0.3303
    -0.3057  -0.2586  -0.2139  -0.2028  -0.1076  -0.0962   0.0230   0.0391
     0.2177   0.2587   0.3009   0.3167   0.3421   0.3501   0.4137   0.4294
     0.4893   0.4953   0.5851   0.5932   0.7034   0.7125   0.7823   0.7871
     0.8367   0.8457   0.9060   0.9076   0.9285   0.9510   1.0283   1.0364
     1.0457   1.0517   1.0744   1.1017   1.1908   1.2103   1.2379   1.2634
     1.3080   1.3216   1.3384   1.3505   1.3755   1.3849   1.4068   1.4104
     1.4422   1.4594   1.4809   1.4924   1.5285   1.5336   1.5589   1.5616
     1.5955   1.5999   1.6569   1.6851   1.7287   1.7299   1.7602   1.7681
     1.8177   1.8340   1.9353   1.9541

          k = 0.3841-0.1277-0.3760 (298021 PWs)   bands (ev):

   -17.7719 -17.7625 -17.4900 -17.4842 -17.4541 -17.4275 -17.3957 -17.3844
   -15.6331 -15.6330 -14.1211 -14.1201 -14.1147 -14.1123 -14.1001 -14.0987
   -14.0966 -14.0959 -14.0941 -14.0921 -14.0912 -14.0899 -14.0789 -14.0789
   -14.0778 -14.0776 -14.0771 -14.0765 -14.0761 -14.0752 -14.0725 -14.0718
   -14.0694 -14.0687 -14.0635 -14.0618 -14.0581 -14.0580 -14.0559 -14.0559
   -14.0553 -14.0552 -14.0549 -14.0529 -14.0528 -14.0522 -14.0432 -14.0413
   -14.0412 -14.0406 -10.4383 -10.4338 -10.3970 -10.3807 -10.3687 -10.3653
    -9.6243  -9.6183  -9.4707  -9.4138  -9.4069  -9.3491  -9.2937  -9.2823
    -9.2444  -9.2394  -9.0705  -9.0665  -9.0464  -9.0322  -9.0197  -9.0188
    -9.0016  -8.9960  -8.9634  -8.9375  -8.9155  -8.8986  -8.8732  -8.8513
    -8.8188  -8.8109  -7.6149  -7.6112  -7.0438  -7.0384  -6.9128  -6.9086
    -6.8972  -6.8802  -6.8550  -6.8447  -6.8385  -6.8333  -6.8240  -6.8216
    -6.7892  -6.7807  -5.4944  -5.3263  -5.3079  -5.2931  -5.2843  -5.1355
    -5.0814  -4.9212  -4.9103  -4.8067  -4.7793  -4.7637  -4.7304  -4.7123
    -4.7037  -4.6706  -3.7404  -3.7340  -3.1911  -3.1857  -2.7045  -2.6989
    -2.6894  -2.6847  -2.6701  -2.6691  -2.6601  -2.6546  -2.6452  -2.6412
    -2.6292  -2.6272  -0.6215  -0.5853  -0.5227  -0.5095  -0.3607  -0.3289
    -0.3059  -0.2624  -0.2118  -0.1972  -0.1089  -0.0951   0.0231   0.0403
     0.2174   0.2569   0.2958   0.3133   0.3415   0.3523   0.4180   0.4318
     0.4901   0.4937   0.5844   0.5928   0.7027   0.7131   0.7798   0.7883
     0.8321   0.8508   0.9056   0.9098   0.9268   0.9538   1.0291   1.0389
     1.0438   1.0533   1.0751   1.0969   1.1910   1.2088   1.2378   1.2636
     1.3091   1.3160   1.3357   1.3505   1.3781   1.3852   1.4110   1.4135
     1.4403   1.4614   1.4800   1.4926   1.5248   1.5325   1.5621   1.5639
     1.5951   1.6002   1.6579   1.6814   1.7251   1.7302   1.7571   1.7768
     1.8232   1.8272   1.9324   1.9571

          k =-0.3841-0.3832 0.1253 (298038 PWs)   bands (ev):

   -17.7719 -17.7625 -17.4900 -17.4842 -17.4541 -17.4275 -17.3957 -17.3844
   -15.6331 -15.6330 -14.1230 -14.1227 -14.1119 -14.1101 -14.0998 -14.0989
   -14.0978 -14.0970 -14.0942 -14.0912 -14.0894 -14.0880 -14.0797 -14.0788
   -14.0782 -14.0780 -14.0773 -14.0769 -14.0764 -14.0752 -14.0726 -14.0718
   -14.0694 -14.0687 -14.0635 -14.0618 -14.0581 -14.0580 -14.0560 -14.0559
   -14.0553 -14.0552 -14.0549 -14.0529 -14.0528 -14.0522 -14.0432 -14.0413
[...]
    -6.8662  -6.8549  -6.8295  -6.8255  -6.8203  -6.8144  -6.8006  -6.7965
    -6.7597  -6.7582  -5.3813  -5.2867  -5.2813  -5.2391  -5.1921  -5.1725
    -5.0555  -5.0376  -5.0012  -4.8807  -4.7633  -4.7606  -4.7347  -4.7235
    -4.6827  -4.6741  -3.7310  -3.7307  -3.1812  -3.1777  -2.6965  -2.6910
    -2.6734  -2.6697  -2.6543  -2.6494  -2.6466  -2.6430  -2.6336  -2.6314
    -2.6130  -2.6127  -0.4063  -0.3870  -0.3347  -0.3288  -0.2664  -0.2657
    -0.2321  -0.1892  -0.1775  -0.1479  -0.0990  -0.0867   0.0496   0.0754
     0.2128   0.2333   0.2771   0.3086   0.3193   0.3370   0.3521   0.3782
     0.4274   0.4526   0.4741   0.4879   0.7370   0.7396   0.7518   0.8052
     0.8270   0.8533   0.8813   0.8941   0.9148   0.9249   0.9815   0.9901
     1.0194   1.0382   1.0747   1.0929   1.1310   1.1611   1.1627   1.1722
     1.2350   1.2556   1.3022   1.3199   1.3610   1.3671   1.3869   1.4048
     1.4232   1.4357   1.4883   1.4944   1.5183   1.5191   1.5470   1.5705
     1.5952   1.6050   1.6537   1.6736   1.7231   1.7275   1.7856   1.7908
     1.8413   1.8423   1.8610   1.8739

          k =-0.3844 0.3831-0.3762 (298023 PWs)   bands (ev):

   -17.7608 -17.7545 -17.4658 -17.4617 -17.4278 -17.4176 -17.3576 -17.3572
   -15.6193 -15.6185 -14.1160 -14.1129 -14.1072 -14.1061 -14.0940 -14.0903
   -14.0883 -14.0871 -14.0859 -14.0848 -14.0836 -14.0820 -14.0732 -14.0717
   -14.0708 -14.0706 -14.0697 -14.0693 -14.0682 -14.0675 -14.0647 -14.0643
   -14.0627 -14.0623 -14.0582 -14.0544 -14.0504 -14.0489 -14.0484 -14.0478
   -14.0468 -14.0460 -14.0460 -14.0452 -14.0444 -14.0431 -14.0338 -14.0334
   -14.0328 -14.0309 -10.4186 -10.4155 -10.3857 -10.3799 -10.3463 -10.3418
    -9.6107  -9.6092  -9.4372  -9.4004  -9.3708  -9.3464  -9.3180  -9.3145
    -9.2615  -9.2571  -9.0719  -9.0635  -9.0436  -9.0308  -9.0023  -8.9996
    -8.9829  -8.9788  -8.9355  -8.9076  -8.8951  -8.8811  -8.8722  -8.8587
    -8.8236  -8.8170  -7.6050  -7.6031  -7.0270  -7.0258  -6.9036  -6.9015
    -6.8661  -6.8549  -6.8296  -6.8254  -6.8201  -6.8145  -6.8006  -6.7966
    -6.7595  -6.7583  -5.3810  -5.2858  -5.2830  -5.2280  -5.1939  -5.1855
    -5.0468  -5.0340  -5.0161  -4.8714  -4.7644  -4.7620  -4.7342  -4.7258
    -4.6811  -4.6737  -3.7310  -3.7307  -3.1812  -3.1777  -2.6965  -2.6911
    -2.6728  -2.6699  -2.6538  -2.6498  -2.6470  -2.6431  -2.6340  -2.6309
    -2.6132  -2.6123  -0.4243  -0.4122  -0.3720  -0.3210  -0.2756  -0.2543
    -0.1983  -0.1823  -0.1540  -0.1095  -0.0849  -0.0546   0.0666   0.0790
     0.1582   0.2309   0.2594   0.2754   0.2857   0.3048   0.3587   0.4028
     0.4390   0.4618   0.4893   0.4920   0.7100   0.7570   0.7796   0.7877
     0.8165   0.8262   0.8634   0.8841   0.9221   0.9428   0.9578   1.0019
     1.0120   1.0413   1.0776   1.0842   1.1546   1.1748   1.1896   1.2199
     1.2376   1.2417   1.2969   1.3137   1.3516   1.3628   1.3918   1.4123
     1.4291   1.4314   1.4881   1.4919   1.5126   1.5182   1.5411   1.5744
     1.5867   1.5988   1.6593   1.6870   1.7308   1.7339   1.7669   1.7726
     1.8039   1.8204   1.8924   1.9115

          k = 0.3844-0.3831-0.3762 (298023 PWs)   bands (ev):

   -17.7608 -17.7545 -17.4658 -17.4617 -17.4278 -17.4176 -17.3576 -17.3572
   -15.6193 -15.6185 -14.1160 -14.1129 -14.1072 -14.1061 -14.0940 -14.0903
   -14.0883 -14.0871 -14.0859 -14.0848 -14.0836 -14.0821 -14.0732 -14.0717
   -14.0708 -14.0706 -14.0697 -14.0693 -14.0682 -14.0675 -14.0647 -14.0643
   -14.0627 -14.0623 -14.0582 -14.0544 -14.0504 -14.0489 -14.0484 -14.0478
   -14.0468 -14.0460 -14.0460 -14.0452 -14.0444 -14.0431 -14.0338 -14.0334
   -14.0328 -14.0309 -10.4186 -10.4155 -10.3857 -10.3799 -10.3463 -10.3418
    -9.6105  -9.6094  -9.4385  -9.3984  -9.3724  -9.3441  -9.3178  -9.3156
    -9.2628  -9.2568  -9.0720  -9.0615  -9.0438  -9.0306  -9.0034  -8.9994
    -8.9828  -8.9809  -8.9351  -8.9067  -8.8941  -8.8822  -8.8729  -8.8576
    -8.8245  -8.8166  -7.6050  -7.6031  -7.0270  -7.0258  -6.9036  -6.9015
    -6.8662  -6.8549  -6.8294  -6.8257  -6.8198  -6.8148  -6.8005  -6.7966
    -6.7597  -6.7582  -5.3807  -5.2861  -5.2833  -5.2302  -5.1897  -5.1867
    -5.0508  -5.0332  -5.0130  -4.8720  -4.7644  -4.7621  -4.7341  -4.7258
    -4.6811  -4.6737  -3.7310  -3.7307  -3.1812  -3.1777  -2.6971  -2.6911
    -2.6723  -2.6698  -2.6541  -2.6493  -2.6471  -2.6430  -2.6335  -2.6314
    -2.6131  -2.6126  -0.4202  -0.4074  -0.3755  -0.3223  -0.2750  -0.2566
    -0.1990  -0.1840  -0.1590  -0.1082  -0.0876  -0.0558   0.0669   0.0795
     0.1620   0.2365   0.2588   0.2785   0.2826   0.3087   0.3590   0.4001
     0.4406   0.4634   0.4849   0.4913   0.7067   0.7594   0.7791   0.7885
     0.8160   0.8302   0.8630   0.8822   0.9196   0.9410   0.9601   1.0032
     1.0154   1.0425   1.0743   1.0780   1.1526   1.1835   1.1922   1.2203
     1.2359   1.2375   1.2975   1.3090   1.3540   1.3642   1.3915   1.4116
     1.4288   1.4316   1.4879   1.4910   1.5112   1.5198   1.5414   1.5760
     1.5876   1.5986   1.6577   1.6890   1.7313   1.7321   1.7684   1.7691
     1.8099   1.8172   1.8924   1.9113

     highest occupied level (ev):     2.2348

!    total energy              =  -16545.23185829 Ry
     Harris-Foulkes estimate   =  -16545.23185829 Ry
     estimated scf accuracy    <          1.6E-09 Ry

     total all-electron energy =   -677464.498728 Ry

     The total energy is the sum of the following terms:

     one-electron contribution =    -837.01200874 Ry
     hartree contribution      =     609.76075484 Ry
     xc contribution           =    -765.74269021 Ry
     ewald contribution        =   -1181.43920033 Ry
     DFT-D3 Dispersion         =      -0.64776440 Ry
     one-center paw contrib.   =  -14370.15094946 Ry

     convergence has been achieved in   8 iterations

     Forces acting on atoms (cartesian axes, Ry/au):

     atom    1 type  1   force =    -0.00022786    0.00006730    0.00124243
     atom    2 type  1   force =    -0.00038852   -0.00034599    0.00104460
     atom    3 type  1   force =    -0.00039948   -0.00013268   -0.00005151
     atom    4 type  1   force =    -0.00021033    0.00004942   -0.00005461
     atom    5 type  1   force =    -0.00002842    0.00031584    0.00025925
     atom    6 type  1   force =    -0.00064226   -0.00011086    0.00028447
     atom    7 type  1   force =    -0.00049557   -0.00014317    0.00059888
     atom    8 type  1   force =    -0.00020941    0.00000743    0.00068213
     atom    9 type  2   force =     0.00016636    0.00009221   -0.00000548
     atom   10 type  2   force =    -0.00052328   -0.00014719    0.00015824
     atom   11 type  2   force =     0.00010153    0.00000706   -0.00157987
     atom   12 type  2   force =     0.00070087   -0.00005469    0.00011646
     atom   13 type  2   force =    -0.00072323    0.00022779    0.00035302
     atom   14 type  2   force =    -0.00046898   -0.00008934   -0.00178760
     atom   15 type  2   force =     0.00047413   -0.00042193    0.00006549
     atom   16 type  2   force =    -0.00009112   -0.00024890   -0.00002261
     atom   17 type  2   force =     0.00005567    0.00015154   -0.00028669
     atom   18 type  2   force =     0.00034839   -0.00047587    0.00035499
     atom   19 type  2   force =    -0.00016985    0.00018576    0.00051956
     atom   20 type  2   force =     0.00005104   -0.00013263    0.00017645
     atom   21 type  2   force =     0.00002791   -0.00030322    0.00056484
     atom   22 type  2   force =    -0.00008631   -0.00039504    0.00041048
     atom   23 type  2   force =     0.00008025    0.00001067   -0.00050604
     atom   24 type  2   force =     0.00073028   -0.00056873    0.00031840
     atom   25 type  2   force =    -0.00009462   -0.00014782   -0.00007221
     atom   26 type  2   force =    -0.00005426    0.00017955   -0.00035306
     atom   27 type  2   force =     0.00065737    0.00005083    0.00007168
     atom   28 type  2   force =    -0.00067783   -0.00015795    0.00016334
     atom   29 type  2   force =    -0.00041194    0.00016741   -0.00085547
     atom   30 type  2   force =     0.00008442    0.00007004   -0.00003864
     atom   31 type  2   force =    -0.00059709   -0.00008647    0.00004153
     atom   32 type  2   force =     0.00008802    0.00000288   -0.00093585
     atom   33 type  3   force =     0.00171442   -0.00017443   -0.00000951
     atom   34 type  3   force =    -0.00095287    0.00064014    0.00123344
     atom   35 type  3   force =     0.00017276   -0.00024193    0.00007351
     atom   36 type  3   force =     0.00001444    0.00004222   -0.00026465
     atom   37 type  3   force =    -0.00023641    0.00035815   -0.00041192
     atom   38 type  3   force =    -0.00066326    0.00002600    0.00058470
     atom   39 type  3   force =    -0.00099234   -0.00023256   -0.00028608
     atom   40 type  3   force =     0.00002292   -0.00125357    0.00004774
     atom   41 type  4   force =     0.00113307    0.00255058    0.00002560
     atom   42 type  4   force =     0.00180697   -0.00000389   -0.00002885
     atom   43 type  4   force =     0.00076017   -0.00032839   -0.00042743
     atom   44 type  4   force =     0.00074784    0.00007448   -0.00103703
     atom   45 type  4   force =     0.00046934   -0.00016165    0.00004500
     atom   46 type  4   force =    -0.00002280    0.00046966   -0.00010763
     atom   47 type  4   force =     0.00093498    0.00021739   -0.00050679
     atom   48 type  4   force =     0.00101229   -0.00009661   -0.00042399
     atom   49 type  4   force =     0.00167090    0.00089413    0.00000026
     atom   50 type  4   force =    -0.00083070    0.00074505    0.00004765
     atom   51 type  5   force =    -0.00172948    0.00008886   -0.00012594
     atom   52 type  5   force =    -0.00136254    0.00088142    0.00003763
     atom   53 type  5   force =     0.00057362   -0.00172559    0.00005899
     atom   54 type  5   force =    -0.00060904   -0.00159506   -0.00006167
     atom   55 type  5   force =    -0.00205256    0.00013614    0.00014494
     atom   56 type  5   force =    -0.00014800   -0.00042959   -0.00117236
     atom   57 type  5   force =     0.00165681    0.00024013    0.00048228
     atom   58 type  5   force =    -0.00053272    0.00108105   -0.00010099
     atom   59 type  5   force =    -0.00025154   -0.00093024    0.00039701
     atom   60 type  5   force =    -0.00096129   -0.00047833   -0.00025812
     atom   61 type  5   force =     0.00017339    0.00024030   -0.00000343
     atom   62 type  5   force =     0.00131934    0.00006092   -0.00032967
     atom   63 type  5   force =     0.00063507   -0.00058773    0.00051242
     atom   64 type  5   force =    -0.00006168    0.00088158   -0.00060473
     atom   65 type  5   force =    -0.00006307   -0.00123093    0.00086201
     atom   66 type  5   force =    -0.00077440    0.00055227   -0.00030938
     atom   67 type  5   force =    -0.00122616    0.00095723    0.00045100
     atom   68 type  5   force =     0.00062146   -0.00004121   -0.00011766
     atom   69 type  5   force =     0.00022612   -0.00008019    0.00009528
     atom   70 type  5   force =     0.00050743    0.00035297   -0.00008605
     atom   71 type  5   force =    -0.00004174    0.00035096   -0.00002735
     atom   72 type  5   force =    -0.00005503    0.00031909    0.00011498
     atom   73 type  5   force =    -0.00041807   -0.00034159    0.00004913
     atom   74 type  5   force =     0.00082857   -0.00038071    0.00004957
     atom   75 type  5   force =     0.00019242   -0.00047783    0.00010324
     atom   76 type  5   force =     0.00046264   -0.00009780   -0.00010601
     atom   77 type  5   force =    -0.00008177    0.00047515    0.00021547
     atom   78 type  5   force =     0.00011048    0.00052272   -0.00003288
     atom   79 type  5   force =     0.00011733   -0.00053164    0.00003378
     atom   80 type  5   force =     0.00116232    0.00015352   -0.00018848
     atom   81 type  5   force =     0.00102423   -0.00023749    0.00027257
     atom   82 type  5   force =     0.00006080    0.00030079   -0.00052629
     atom   83 type  5   force =    -0.00016883   -0.00083987    0.00029782
     atom   84 type  5   force =    -0.00081411    0.00043395   -0.00034399
     atom   85 type  5   force =    -0.00080113    0.00044885   -0.00001928
     atom   86 type  5   force =     0.00043332    0.00105176    0.00096020
     atom   87 type  5   force =    -0.00026489    0.00030200   -0.00000960
     atom   88 type  5   force =     0.00023473    0.00074907   -0.00094666
     atom   89 type  5   force =    -0.00022228   -0.00111752    0.00158240
     atom   90 type  5   force =    -0.00054692   -0.00057569   -0.00002509
     atom   91 type  5   force =     0.00008221    0.00002469   -0.00065633
     atom   92 type  5   force =    -0.00059699    0.00024990   -0.00006451
     atom   93 type  5   force =    -0.00053658    0.00065567    0.00004645
     atom   94 type  5   force =     0.00072232   -0.00041427   -0.00005523
     atom   95 type  5   force =    -0.00021564    0.00006968   -0.00006686
     atom   96 type  5   force =    -0.00043575   -0.00061540    0.00004071

     Total force =     0.010259     Total SCF correction =     0.000065


     Computing stress (Cartesian axis) and pressure

          total   stress  (Ry/bohr**3)                   (kbar)     P=   -0.15
  -0.00000233   0.00001087  -0.00000046         -0.34      1.60     -0.07
   0.00001087  -0.00000206   0.00000024          1.60     -0.30      0.04
  -0.00000046   0.00000024   0.00000138         -0.07      0.04      0.20


     number of scf cycles    =  10
     number of bfgs steps    =   9

     enthalpy old            =  -16545.2317275860 Ry
     enthalpy new            =  -16545.2318582926 Ry

     CASE: enthalpy_new < enthalpy_old

     new trust radius        =       0.0199989009 bohr
     new conv_thr            =       0.0000000013 Ry

     new unit-cell volume =  13405.61222 a.u.^3 (  1986.50675 Ang^3 )
     density =      4.17274 g/cm^3

CELL_PARAMETERS (alat= 24.15259000)
   0.975172919   0.000000000   0.000000000
   0.000000000   0.978683133   0.000000000
   0.000000000   0.000000000   0.996946354

ATOMIC_POSITIONS (crystal)
Pb       0.006778212  -0.005733810   0.003740669
Pb       0.007176276  -0.004940457   0.499920864
Pb      -0.000012841   0.495665391   0.001397845
Pb       0.000013781   0.494913716   0.504793275
Pb       0.499919961  -0.005389964   0.004637714
Pb       0.499964287  -0.004312820   0.501123826
Pb       0.507196005   0.494612966   0.000407966
Pb       0.506750475   0.494485620   0.504182157
I        0.253543977   0.069662490   0.011822278
I       -0.041480958   0.243752174  -0.027011298
I       -0.031525323   0.017808338   0.254453226
I        0.252403136   0.071114717   0.495804157
I       -0.042600087   0.243734296   0.529728397
I        0.017883679  -0.027051729   0.754543031
I        0.253181186   0.460189604   0.025106164
I        0.073039599   0.744206472   0.000709075
I       -0.010236038   0.508062271   0.253174881
I        0.253883317   0.460234914   0.480095113
I        0.072466715   0.744203394   0.504611716
I        0.022549028   0.491649568   0.752948871
I        0.753975798  -0.040546439  -0.019898178
I        0.572690996   0.244653118   0.004820914
I        0.522391410  -0.008340181   0.253341314
I        0.752950925  -0.039112748   0.524879304
I        0.572521572   0.244385714   0.500814181
I        0.490019987   0.008218366   0.753534936
I        0.752588424   0.570787481  -0.004639466
I        0.457198012   0.744162957   0.030010616
I        0.518063276   0.472654365   0.253693560
I        0.753478711   0.569580727   0.511730061
I        0.458982101   0.743731817   0.473165484
I        0.468502817   0.517765226   0.753700304
C        0.252007693   0.288464068   0.252750904
C        0.283598541   0.281291321   0.751890966
C        0.258553805   0.788118381   0.253967890
C        0.294484430   0.789037027   0.751394098
C        0.794454896   0.289092169   0.251849635
C        0.758772424   0.287755807   0.753696205
C        0.783784457   0.781156110   0.252451714
C        0.751348136   0.788287834   0.752476954
N        0.154733741   0.247931663   0.252631409
N        0.342170694   0.234055569   0.252615707
N        0.198410267   0.197136840   0.755576950
N        0.237186605   0.670336230   0.254325965
N        0.216993226   0.697898941   0.753031772
N        0.716810820   0.198137474   0.253448111
N        0.737357304   0.170023201   0.754432899
N        0.699583483   0.696117904   0.254652146
N        0.653915873   0.748041460   0.752575381
N        0.841479013   0.733769292   0.752292070
H        0.259346896   0.375140357   0.253049212
H        0.138428435   0.167807870   0.252487758
H        0.091251435   0.299448530   0.252889574
H        0.346296335   0.152725987   0.252385313
H        0.412721139   0.275531069   0.252489312
H        0.202568488   0.148291516   0.689622457
H        0.122327328   0.229806270   0.757894657
H        0.207282945   0.149149964   0.821930659
H        0.272174866   0.329712315   0.681180130
H        0.361919196   0.241603407   0.750077068
H        0.276566289   0.330823627   0.822255667
H        0.265416177   0.633986693   0.186583030
H        0.155727584   0.652941027   0.258299931
H        0.272723866   0.633042948   0.318298964
H        0.218097179   0.823501940   0.186040804
H        0.345187224   0.800417871   0.248629777
H        0.227950276   0.821318051   0.327538726
H        0.167244155   0.699672129   0.687238846
H        0.168637203   0.701019993   0.819811777
H        0.257010057   0.625387207   0.753413445
H        0.343509422   0.782452605   0.680374114
H        0.344759478   0.783970222   0.821704216
H        0.248875051   0.863841378   0.750987145
H        0.667132432   0.200009710   0.187647177
H        0.668384474   0.201469546   0.320143606
H        0.756598038   0.125491804   0.253988792
H        0.843548132   0.282447926   0.180894300
H        0.844502679   0.284013037   0.322310303
H        0.748968691   0.363930785   0.251296818
H        0.765934040   0.133349336   0.686981313
H        0.655916184   0.152476739   0.758295250
H        0.772634650   0.133156299   0.818731157
H        0.719002378   0.322795898   0.685269090
H        0.845473286   0.300041860   0.748936198
H        0.727248818   0.321403170   0.826659261
H        0.704289890   0.647606383   0.188439745
H        0.623451066   0.728450827   0.256606466
H        0.707698624   0.648079230   0.320999477
H        0.772613094   0.829895413   0.181985614
H        0.862421784   0.742331349   0.251154007
H        0.775684105   0.830152670   0.323122488
H        0.758477040   0.875024586   0.752563532
H        0.637122181   0.668051949   0.752550716
H        0.590459997   0.799623436   0.753001805
H        0.845718484   0.652372779   0.752270086
H        0.911894995   0.775601505   0.752278493



     Writing output data file 025FA2_vcrelax8.save/
     NEW-OLD atomic charge density approx. for the potential
     extrapolated charge  407.84034, renormalised to  408.00000

     total cpu time spent up to now is   247192.4 secs

     Self-consistent Calculation

     iteration #  1     ecut=   120.00 Ry     beta= 0.70
     Davidson diagonalization with overlap
     ethr =  1.00E-06,  avg # of iterations =  4.0

     total cpu time spent up to now is   250134.9 secs

     total energy              =  -16545.23164265 Ry
     Harris-Foulkes estimate   =  -16545.46919053 Ry
     estimated scf accuracy    <       0.00058689 Ry

     iteration #  2     ecut=   120.00 Ry     beta= 0.70
     Davidson diagonalization with overlap
     ethr =  1.44E-07,  avg # of iterations =  3.0

     total cpu time spent up to now is   252373.6 secs

     total energy              =  -16545.23192464 Ry
     Harris-Foulkes estimate   =  -16545.23208724 Ry
     estimated scf accuracy    <       0.00040786 Ry

     iteration #  3     ecut=   120.00 Ry     beta= 0.70
     Davidson diagonalization with overlap
