
     Program PWSCF v.6.4 starts on 11Jul2020 at 17:33:47 

     This program is part of the open-source Quantum ESPRESSO suite
     for quantum simulation of materials; please cite
         "P. Giannozzi et al., J. Phys.:Condens. Matter 21 395502 (2009);
         "P. Giannozzi et al., J. Phys.:Condens. Matter 29 465901 (2017);
          URL http://www.quantum-espresso.org", 
     in publications or presentations arising from this work. More details at
     http://www.quantum-espresso.org/quote

     Parallel version (MPI), running on    32 processors

     MPI processes distributed on     1 nodes
     R & G space division:  proc/nbgrp/npool/nimage =      32
     Waiting for input...
     Reading input from standard input

     Current dimensions of program PWSCF are:
     Max number of different atomic species (ntypx) = 10
     Max number of k-points (npk) =  40000
     Max angular momentum in pseudopotentials (lmaxx) =  3
               file Pb.pbe-dn-kjpaw_psl.1.0.0.UPF: wavefunction(s)  6S 6P 5D renormalized
               file I.pbe-n-kjpaw_psl.1.0.0.UPF: wavefunction(s)  5S renormalized
               file C.pbe-n-kjpaw_psl.1.0.0.UPF: wavefunction(s)  2S 2P renormalized
               file N.pbe-n-kjpaw_psl.1.0.0.UPF: wavefunction(s)  2S renormalized
               file H.pbe-kjpaw_psl.1.0.0.UPF: wavefunction(s)  1S renormalized

     --------------------------------------------
     Parameters for DFT-D3 Dispersion Correction:
     --------------------------------------------
       Reference C6 values for interpolation: 

         atom   Coordination number   C6
         H          0.912             6.05
         H          0.000            15.18
         C          0.000            98.23
         C          0.987            86.49
         C          1.998            58.72
         C          2.999            51.56
         C          3.984            36.41
         N          0.000            50.54
         N          0.994            44.25
         N          2.014            39.35
         N          2.990            31.16
         I          0.000           703.93
         I          0.997           717.00
         Pb         0.000          1477.63
         Pb         0.938          1266.00
         Pb         1.936          1088.91
         Pb         2.908          1048.37
         Pb         3.910           910.57

       Values used:

         atom   Coordination number  R0_AB[au]  C6      C8
         Pb         4.828            4.041    910.57 144158.35
         Pb         4.827            4.041    910.57 144158.36
         Pb         4.841            4.041    910.57 144158.33
         Pb         4.849            4.041    910.57 144158.32
         Pb         4.848            4.041    910.57 144158.32
         Pb         4.841            4.041    910.57 144158.33
         Pb         4.826            4.041    910.57 144158.36
         Pb         4.833            4.041    910.57 144158.35
         I          1.927            3.532    717.00  65855.99
         I          1.962            3.532    717.00  65856.00
         I          1.901            3.532    717.00  65855.99
         I          1.920            3.532    717.00  65855.99
         I          1.970            3.532    717.00  65856.00
         I          1.995            3.532    717.00  65856.00
         I          2.008            3.532    717.00  65856.00
         I          1.944            3.532    717.00  65855.99
         I          1.961            3.532    717.00  65856.00
         I          2.011            3.532    717.00  65856.00
         I          1.932            3.532    717.00  65855.99
         I          2.028            3.532    717.00  65856.00
         I          2.009            3.532    717.00  65856.00
         I          1.932            3.532    717.00  65855.99
         I          2.029            3.532    717.00  65856.00
         I          2.009            3.532    717.00  65856.00
         I          1.948            3.532    717.00  65855.99
         I          1.961            3.532    717.00  65856.00
         I          1.920            3.532    717.00  65855.99
         I          1.967            3.532    717.00  65856.00
         I          1.997            3.532    717.00  65856.00
         I          1.929            3.532    717.00  65855.99
         I          1.965            3.532    717.00  65856.00
         I          1.902            3.532    717.00  65855.99
         C          3.102            2.750     50.87   1471.37
         C          4.036            2.750     36.59   1058.33
         C          4.043            2.750     36.58   1058.06
         C          4.045            2.750     36.58   1058.00
         C          4.045            2.750     36.58   1057.99
         C          4.043            2.750     36.58   1058.06
         C          4.036            2.750     36.59   1058.34
         C          3.101            2.750     50.87   1471.39
         N          3.096            2.478     31.24    689.11
         N          3.102            2.478     31.23    689.03
         N          4.052            2.478     31.16    687.49
         N          4.048            2.478     31.16    687.49
         N          4.060            2.478     31.16    687.49
         N          4.060            2.478     31.16    687.49
         N          4.048            2.478     31.16    687.49
         N          4.052            2.478     31.16    687.49
         N          3.096            2.478     31.24    689.11
         N          3.102            2.478     31.23    689.04
         H          1.029            2.062      6.16     74.43
         H          1.037            2.062      6.15     74.36
         H          1.032            2.062      6.15     74.40
         H          1.028            2.062      6.16     74.44
         H          1.044            2.062      6.15     74.30
         H          1.052            2.062      6.14     74.24
         H          1.016            2.062      6.17     74.56
         H          1.059            2.062      6.14     74.18
         H          1.015            2.062      6.17     74.56
         H          1.007            2.062      6.17     74.64
         H          1.014            2.062      6.17     74.57
         H          1.024            2.062      6.16     74.47
         H          1.046            2.062      6.15     74.29
         H          1.024            2.062      6.16     74.47
         H          1.011            2.062      6.17     74.60
         H          1.017            2.062      6.17     74.54
         H          1.012            2.062      6.17     74.59
         H          1.063            2.062      6.13     74.16
         H          1.066            2.062      6.13     74.13
         H          1.026            2.062      6.16     74.46
         H          1.015            2.062      6.17     74.56
         H          1.016            2.062      6.17     74.55
         H          1.011            2.062      6.17     74.61
         H          1.063            2.062      6.13     74.16
         H          1.067            2.062      6.13     74.13
         H          1.025            2.062      6.16     74.46
         H          1.015            2.062      6.17     74.56
         H          1.016            2.062      6.17     74.55
         H          1.011            2.062      6.17     74.61
         H          1.024            2.062      6.16     74.47
         H          1.046            2.062      6.14     74.28
         H          1.024            2.062      6.16     74.47
         H          1.011            2.062      6.17     74.60
         H          1.017            2.062      6.17     74.54
         H          1.012            2.062      6.17     74.60
         H          1.054            2.062      6.14     74.22
         H          1.015            2.062      6.17     74.56
         H          1.059            2.062      6.14     74.19
         H          1.015            2.062      6.17     74.56
         H          1.007            2.062      6.17     74.64
         H          1.015            2.062      6.17     74.57
         H          1.029            2.062      6.16     74.43
         H          1.038            2.062      6.15     74.35
         H          1.033            2.062      6.15     74.40
         H          1.027            2.062      6.16     74.44
         H          1.043            2.062      6.15     74.30

         Molecular C6 ( Ry / a.u.^6 ) =   1214769.60


     Subspace diagonalization in iterative solution of the eigenvalue problem:
     a serial algorithm will be used


     Parallelization info
     --------------------
     sticks:   dense  smooth     PW     G-vecs:    dense   smooth      PW
     Min         664     664    171                74438    74438    9749
     Max         665     665    172                74445    74445    9754
     Sum       21277   21277   5481              2382141  2382141  312013



     bravais-lattice index     =            0
     lattice parameter (alat)  =      23.5542  a.u.
     unit-cell volume          =   13414.6548 (a.u.)^3
     number of atoms/cell      =           96
     number of atomic types    =            5
     number of electrons       =       408.00
     number of Kohn-Sham states=          204
     kinetic-energy cutoff     =     120.0000  Ry
     charge density cutoff     =     480.0000  Ry
     convergence threshold     =      1.0E-07
     mixing beta               =       0.7000
     number of iterations used =            8  plain     mixing
     Exchange-correlation      = SLA PW PBX PBC ( 1  4  3  4 0 0)
     nstep                     =          150


     celldm(1)=  23.554163  celldm(2)=   0.000000  celldm(3)=   0.000000
     celldm(4)=   0.000000  celldm(5)=   0.000000  celldm(6)=   0.000000

     crystal axes: (cart. coord. in units of alat)
               a(1) = (   1.000000   0.000000   0.000000 )  
               a(2) = (   0.000000   1.003349   0.000000 )  
               a(3) = (   0.000000   0.000000   1.023115 )  

     reciprocal axes: (cart. coord. in units 2 pi/alat)
               b(1) = (  1.000000  0.000000  0.000000 )  
               b(2) = (  0.000000  0.996662  0.000000 )  
               b(3) = (  0.000000  0.000000  0.977408 )  


     PseudoPot. # 1 for Pb read from file:
     ../../../../Pseudopotential/Pb.pbe-dn-kjpaw_psl.1.0.0.UPF
     MD5 check sum: 684fc8fbce61a260853528575e4d9ab7
     Pseudo is Projector augmented-wave + core cor, Zval = 14.0
     Generated using "atomic" code by A. Dal Corso v.6.3
     Shape of augmentation charge: PSQ
     Using radial grid of 1281 points,  6 beta functions with: 
                l(1) =   0
                l(2) =   0
                l(3) =   1
                l(4) =   1
                l(5) =   2
                l(6) =   2
     Q(r) pseudized with 0 coefficients 


     PseudoPot. # 2 for I  read from file:
     ../../../../Pseudopotential/I.pbe-n-kjpaw_psl.1.0.0.UPF
     MD5 check sum: cd3d296c3308a581e1559a0c8a554cb5
     Pseudo is Projector augmented-wave + core cor, Zval =  7.0
     Generated using "atomic" code by A. Dal Corso v.6.3
     Shape of augmentation charge: PSQ
     Using radial grid of 1247 points,  6 beta functions with: 
                l(1) =   0
                l(2) =   0
                l(3) =   1
                l(4) =   1
                l(5) =   2
                l(6) =   2
     Q(r) pseudized with 0 coefficients 


     PseudoPot. # 3 for C  read from file:
     ../../../../Pseudopotential/C.pbe-n-kjpaw_psl.1.0.0.UPF
     MD5 check sum: 5f16ad9a65e90284d1d834d4ab3b0f7d
     Pseudo is Projector augmented-wave + core cor, Zval =  4.0
     Generated using "atomic" code by A. Dal Corso v.6.3
     Shape of augmentation charge: PSQ
     Using radial grid of 1073 points,  4 beta functions with: 
                l(1) =   0
                l(2) =   0
                l(3) =   1
                l(4) =   1
     Q(r) pseudized with 0 coefficients 


     PseudoPot. # 4 for N  read from file:
     ../../../../Pseudopotential/N.pbe-n-kjpaw_psl.1.0.0.UPF
     MD5 check sum: 14c48229446f9f2d411169a3abcbc3fa
     Pseudo is Projector augmented-wave + core cor, Zval =  5.0
     Generated using "atomic" code by A. Dal Corso v.6.3
     Shape of augmentation charge: PSQ
     Using radial grid of 1085 points,  4 beta functions with: 
                l(1) =   0
                l(2) =   0
                l(3) =   1
                l(4) =   1
     Q(r) pseudized with 0 coefficients 


     PseudoPot. # 5 for H  read from file:
     ../../../../Pseudopotential/H.pbe-kjpaw_psl.1.0.0.UPF
     MD5 check sum: d81a744832360e4a8af0b0b5b123bc2a
     Pseudo is Projector augmented-wave, Zval =  1.0
     Generated using "atomic" code by A. Dal Corso v.6.3MaX
     Shape of augmentation charge: PSQ
     Using radial grid of  929 points,  2 beta functions with: 
                l(1) =   0
                l(2) =   0
     Q(r) pseudized with 0 coefficients 


     atomic species   valence    mass     pseudopotential
        Pb            14.00   207.97600     Pb( 1.00)
        I              7.00   126.90400     I ( 1.00)
        C              4.00    12.00000     C ( 1.00)
        N              5.00    14.00300     N ( 1.00)
        H              1.00     1.00700     H ( 1.00)

     No symmetry found



   Cartesian axes

     site n.     atom                  positions (alat units)
         1           Pb  tau(   1) = (   0.0065674  -0.0057601   0.0047779  )
         2           Pb  tau(   2) = (   0.0068121  -0.0053097   0.5123808  )
         3           Pb  tau(   3) = (  -0.0004118   0.4972008   0.0013649  )
         4           Pb  tau(   4) = (  -0.0001790   0.4966017   0.5164107  )
         5           Pb  tau(   5) = (   0.4998547  -0.0051718   0.0049005  )
         6           Pb  tau(   6) = (   0.4994354  -0.0044071   0.5129281  )
         7           Pb  tau(   7) = (   0.5067751   0.4961434   0.0009380  )
         8           Pb  tau(   8) = (   0.5065749   0.4960801   0.5163648  )
         9           I   tau(   9) = (   0.2536479   0.0700413   0.0120683  )
        10           I   tau(  10) = (  -0.0418233   0.2443838  -0.0274960  )
        11           I   tau(  11) = (  -0.0314116   0.0179715   0.2589852  )
        12           I   tau(  12) = (   0.2530237   0.0714043   0.5074130  )
        13           I   tau(  13) = (  -0.0431500   0.2447664   0.5422839  )
        14           I   tau(  14) = (   0.0174670  -0.0271754   0.7705900  )
        15           I   tau(  15) = (   0.2536498   0.4614142   0.0257921  )
        16           I   tau(  16) = (   0.0730239   0.7465682   0.0007218  )
        17           I   tau(  17) = (  -0.0102456   0.5099598   0.2589059  )
        18           I   tau(  18) = (   0.2541049   0.4614221   0.4914489  )
        19           I   tau(  19) = (   0.0723638   0.7467912   0.5167392  )
        20           I   tau(  20) = (   0.0225920   0.4931920   0.7703807  )
        21           I   tau(  21) = (   0.7540682  -0.0408974  -0.0199380  )
        22           I   tau(  22) = (   0.5726746   0.2451556   0.0052811  )
        23           I   tau(  23) = (   0.5224897  -0.0083887   0.2588719  )
        24           I   tau(  24) = (   0.7535518  -0.0396768   0.5373097  )
        25           I   tau(  25) = (   0.5725076   0.2450731   0.5123713  )
        26           I   tau(  26) = (   0.4899015   0.0084079   0.7706261  )
        27           I   tau(  27) = (   0.7531327   0.5728128  -0.0046504  )
        28           I   tau(  28) = (   0.4566913   0.7464477   0.0308450  )
        29           I   tau(  29) = (   0.5177040   0.4744412   0.2588394  )
        30           I   tau(  30) = (   0.7536344   0.5715998   0.5234861  )
        31           I   tau(  31) = (   0.4585416   0.7461696   0.4840787  )
        32           I   tau(  32) = (   0.4685817   0.5195539   0.7703656  )
        33           C   tau(  33) = (   0.2522933   0.2893808   0.2585843  )
        34           C   tau(  34) = (   0.2835547   0.2822166   0.7695205  )
        35           C   tau(  35) = (   0.2583547   0.7908027   0.2601573  )
        36           C   tau(  36) = (   0.2945192   0.7917213   0.7687557  )
        37           C   tau(  37) = (   0.7944718   0.2901268   0.2576773  )
        38           C   tau(  38) = (   0.7584492   0.2888298   0.7712763  )
        39           C   tau(  39) = (   0.7838823   0.7836800   0.2585162  )
        40           C   tau(  40) = (   0.7514298   0.7909793   0.7699009  )
        41           N   tau(  41) = (   0.1549424   0.2489555   0.2585117  )
        42           N   tau(  42) = (   0.3423234   0.2344698   0.2584492  )
        43           N   tau(  43) = (   0.1985712   0.1975969   0.7727996  )
        44           N   tau(  44) = (   0.2375285   0.6726115   0.2599452  )
        45           N   tau(  45) = (   0.2172688   0.7002334   0.7704604  )
        46           N   tau(  46) = (   0.7170305   0.1987727   0.2593462  )
        47           N   tau(  47) = (   0.7377618   0.1706046   0.7716822  )
        48           N   tau(  48) = (   0.6992873   0.6985653   0.2606103  )
        49           N   tau(  49) = (   0.6540293   0.7505591   0.7699923  )
        50           N   tau(  50) = (   0.8414702   0.7361399   0.7697368  )
        51           H   tau(  51) = (   0.2589091   0.3764766   0.2587968  )
        52           H   tau(  52) = (   0.1379610   0.1688230   0.2583540  )
        53           H   tau(  53) = (   0.0913495   0.3004280   0.2587626  )
        54           H   tau(  54) = (   0.3461766   0.1527034   0.2581610  )
        55           H   tau(  55) = (   0.4125724   0.2766960   0.2584316  )
        56           H   tau(  56) = (   0.2024426   0.1486335   0.7051451  )
        57           H   tau(  57) = (   0.1227473   0.2306509   0.7756217  )
        58           H   tau(  58) = (   0.2068754   0.1498561   0.8409591  )
        59           H   tau(  59) = (   0.2721903   0.3305542   0.6971535  )
        60           H   tau(  60) = (   0.3616662   0.2423732   0.7672604  )
        61           H   tau(  61) = (   0.2766283   0.3322887   0.8414484  )
        62           H   tau(  62) = (   0.2661687   0.6362259   0.1906923  )
        63           H   tau(  63) = (   0.1562826   0.6544804   0.2643219  )
        64           H   tau(  64) = (   0.2729271   0.6355391   0.3253954  )
        65           H   tau(  65) = (   0.2179267   0.8257084   0.1906019  )
        66           H   tau(  66) = (   0.3448855   0.8037973   0.2542376  )
        67           H   tau(  67) = (   0.2273333   0.8244091   0.3350286  )
        68           H   tau(  68) = (   0.1676537   0.7018363   0.7031816  )
        69           H   tau(  69) = (   0.1688435   0.7031633   0.8386099  )
        70           H   tau(  70) = (   0.2572991   0.6275232   0.7707809  )
        71           H   tau(  71) = (   0.3434676   0.7854557   0.6961145  )
        72           H   tau(  72) = (   0.3446768   0.7869880   0.8406446  )
        73           H   tau(  73) = (   0.2487688   0.8665949   0.7683630  )
        74           H   tau(  74) = (   0.6675138   0.2003989   0.1919511  )
        75           H   tau(  75) = (   0.6685196   0.2018549   0.3274698  )
        76           H   tau(  76) = (   0.7568935   0.1260270   0.2597709  )
        77           H   tau(  77) = (   0.8435783   0.2836762   0.1851627  )
        78           H   tau(  78) = (   0.8445631   0.2853759   0.3295842  )
        79           H   tau(  79) = (   0.7488256   0.3651045   0.2571359  )
        80           H   tau(  80) = (   0.7666114   0.1338798   0.7027296  )
        81           H   tau(  81) = (   0.6564872   0.1525098   0.7757140  )
        82           H   tau(  82) = (   0.7729942   0.1337989   0.8374182  )
        83           H   tau(  83) = (   0.7186757   0.3233133   0.7011034  )
        84           H   tau(  84) = (   0.8449833   0.3017820   0.7663188  )
        85           H   tau(  85) = (   0.7269258   0.3228279   0.8458304  )
        86           H   tau(  86) = (   0.7045248   0.6500072   0.1927365  )
        87           H   tau(  87) = (   0.6230770   0.7308283   0.2625573  )
        88           H   tau(  88) = (   0.7076543   0.6502609   0.3283645  )
        89           H   tau(  89) = (   0.7727046   0.8324867   0.1863663  )
        90           H   tau(  90) = (   0.8624922   0.7445858   0.2567268  )
        91           H   tau(  91) = (   0.7756834   0.8331602   0.3305840  )
        92           H   tau(  92) = (   0.7583579   0.8780027   0.7699264  )
        93           H   tau(  93) = (   0.6369714   0.6703968   0.7699904  )
        94           H   tau(  94) = (   0.5907630   0.8024737   0.7703282  )
        95           H   tau(  95) = (   0.8454080   0.6544538   0.7696098  )
        96           H   tau(  96) = (   0.9118212   0.7781595   0.7696728  )

     number of k points=    32
                       cart. coord. in units 2pi/alat
        k(    1) = (   0.1250000   0.1245827   0.1221760), wk =   0.0625000
        k(    2) = (   0.1250000   0.1245827   0.3665279), wk =   0.0625000
        k(    3) = (   0.1250000   0.3737482   0.1221760), wk =   0.0625000
        k(    4) = (   0.1250000   0.3737482   0.3665279), wk =   0.0625000
        k(    5) = (   0.3750000   0.1245827   0.1221760), wk =   0.0625000
        k(    6) = (   0.3750000   0.1245827   0.3665279), wk =   0.0625000
        k(    7) = (   0.3750000   0.3737482   0.1221760), wk =   0.0625000
        k(    8) = (   0.3750000   0.3737482   0.3665279), wk =   0.0625000
        k(    9) = (  -0.1250000  -0.1245827   0.1221760), wk =   0.0625000
        k(   10) = (  -0.1250000   0.1245827  -0.1221760), wk =   0.0625000
        k(   11) = (   0.1250000  -0.1245827  -0.1221760), wk =   0.0625000
        k(   12) = (  -0.1250000  -0.1245827   0.3665279), wk =   0.0625000
        k(   13) = (  -0.1250000   0.1245827  -0.3665279), wk =   0.0625000
        k(   14) = (   0.1250000  -0.1245827  -0.3665279), wk =   0.0625000
        k(   15) = (  -0.1250000  -0.3737482   0.1221760), wk =   0.0625000
        k(   16) = (  -0.1250000   0.3737482  -0.1221760), wk =   0.0625000
        k(   17) = (   0.1250000  -0.3737482  -0.1221760), wk =   0.0625000
        k(   18) = (  -0.1250000  -0.3737482   0.3665279), wk =   0.0625000
        k(   19) = (  -0.1250000   0.3737482  -0.3665279), wk =   0.0625000
        k(   20) = (   0.1250000  -0.3737482  -0.3665279), wk =   0.0625000
        k(   21) = (  -0.3750000  -0.1245827   0.1221760), wk =   0.0625000
        k(   22) = (  -0.3750000   0.1245827  -0.1221760), wk =   0.0625000
        k(   23) = (   0.3750000  -0.1245827  -0.1221760), wk =   0.0625000
        k(   24) = (  -0.3750000  -0.1245827   0.3665279), wk =   0.0625000
        k(   25) = (  -0.3750000   0.1245827  -0.3665279), wk =   0.0625000
        k(   26) = (   0.3750000  -0.1245827  -0.3665279), wk =   0.0625000
        k(   27) = (  -0.3750000  -0.3737482   0.1221760), wk =   0.0625000
        k(   28) = (  -0.3750000   0.3737482  -0.1221760), wk =   0.0625000
        k(   29) = (   0.3750000  -0.3737482  -0.1221760), wk =   0.0625000
        k(   30) = (  -0.3750000  -0.3737482   0.3665279), wk =   0.0625000
        k(   31) = (  -0.3750000   0.3737482  -0.3665279), wk =   0.0625000
        k(   32) = (   0.3750000  -0.3737482  -0.3665279), wk =   0.0625000

     Dense  grid:  2382141 G-vectors     FFT dimensions: ( 180, 180, 180)

     Estimated max dynamical RAM per process >       1.69 GB

     Estimated total dynamical RAM >      53.98 GB

     Initial potential from superposition of free atoms

     starting charge  407.97850, renormalised to  408.00000
     Starting wfcs are  286 randomized atomic wfcs
     Checking if some PAW data can be deallocated... 

     total cpu time spent up to now is      832.8 secs

     Self-consistent Calculation

     iteration #  1     ecut=   120.00 Ry     beta= 0.70
     Davidson diagonalization with overlap
     ethr =  1.00E-02,  avg # of iterations =  2.0

     total cpu time spent up to now is     2535.8 secs

     total energy              =  -16543.27796554 Ry
     Harris-Foulkes estimate   =  -16546.90329536 Ry
     estimated scf accuracy    <       5.99285631 Ry

     iteration #  2     ecut=   120.00 Ry     beta= 0.70
     Davidson diagonalization with overlap
     ethr =  1.47E-03,  avg # of iterations =  3.5

     total cpu time spent up to now is     4816.4 secs

     total energy              =  -16544.57863722 Ry
     Harris-Foulkes estimate   =  -16546.04550319 Ry
     estimated scf accuracy    <       2.64013813 Ry

     iteration #  3     ecut=   120.00 Ry     beta= 0.70
     Davidson diagonalization with overlap
     ethr =  6.47E-04,  avg # of iterations =  4.0

     total cpu time spent up to now is     6587.0 secs

     total energy              =  -16545.19283603 Ry
     Harris-Foulkes estimate   =  -16545.24782756 Ry
     estimated scf accuracy    <       0.12330211 Ry

     iteration #  4     ecut=   120.00 Ry     beta= 0.70
     Davidson diagonalization with overlap
     ethr =  3.02E-05,  avg # of iterations =  4.0

     total cpu time spent up to now is     8762.2 secs

     total energy              =  -16545.22535803 Ry
     Harris-Foulkes estimate   =  -16545.24179483 Ry
     estimated scf accuracy    <       0.03153073 Ry

     iteration #  5     ecut=   120.00 Ry     beta= 0.70
     Davidson diagonalization with overlap
     ethr =  7.73E-06,  avg # of iterations =  4.0

     total cpu time spent up to now is    10606.3 secs

     total energy              =  -16545.23177158 Ry
     Harris-Foulkes estimate   =  -16545.23287423 Ry
     estimated scf accuracy    <       0.00214211 Ry

     iteration #  6     ecut=   120.00 Ry     beta= 0.70
     Davidson diagonalization with overlap
     ethr =  5.25E-07,  avg # of iterations =  4.0

     total cpu time spent up to now is    12707.6 secs

     total energy              =  -16545.23240689 Ry
     Harris-Foulkes estimate   =  -16545.23262344 Ry
     estimated scf accuracy    <       0.00048574 Ry

     iteration #  7     ecut=   120.00 Ry     beta= 0.70
     Davidson diagonalization with overlap
     ethr =  1.19E-07,  avg # of iterations =  3.0

     total cpu time spent up to now is    14668.1 secs

     total energy              =  -16545.23251260 Ry
     Harris-Foulkes estimate   =  -16545.23252452 Ry
     estimated scf accuracy    <       0.00003061 Ry

     iteration #  8     ecut=   120.00 Ry     beta= 0.70
     Davidson diagonalization with overlap
     ethr =  7.50E-09,  avg # of iterations =  4.0

     total cpu time spent up to now is    16851.3 secs

     total energy              =  -16545.23252043 Ry
     Harris-Foulkes estimate   =  -16545.23252798 Ry
     estimated scf accuracy    <       0.00001650 Ry

     iteration #  9     ecut=   120.00 Ry     beta= 0.70
     Davidson diagonalization with overlap
     ethr =  4.05E-09,  avg # of iterations =  3.7

     total cpu time spent up to now is    18669.0 secs

     total energy              =  -16545.23252408 Ry
     Harris-Foulkes estimate   =  -16545.23252474 Ry
     estimated scf accuracy    <       0.00000147 Ry

     iteration # 10     ecut=   120.00 Ry     beta= 0.70
     Davidson diagonalization with overlap
     ethr =  3.59E-10,  avg # of iterations =  4.0

     total cpu time spent up to now is    20624.1 secs

     total energy              =  -16545.23252443 Ry
     Harris-Foulkes estimate   =  -16545.23252452 Ry
     estimated scf accuracy    <       0.00000019 Ry

     iteration # 11     ecut=   120.00 Ry     beta= 0.70
     Davidson diagonalization with overlap
     ethr =  4.65E-11,  avg # of iterations =  4.0

     total cpu time spent up to now is    22589.0 secs

     End of self-consistent calculation

          k = 0.1250 0.1246 0.1222 (297733 PWs)   bands (ev):

   -17.7630 -17.7619 -17.4775 -17.4729 -17.4387 -17.4344 -17.3651 -17.3616
   -15.6235 -15.6222 -14.1205 -14.1194 -14.1083 -14.1075 -14.0983 -14.0966
   -14.0942 -14.0935 -14.0910 -14.0878 -14.0844 -14.0827 -14.0754 -14.0745
   -14.0743 -14.0740 -14.0730 -14.0729 -14.0721 -14.0708 -14.0674 -14.0670
   -14.0667 -14.0662 -14.0603 -14.0590 -14.0530 -14.0528 -14.0522 -14.0516
   -14.0509 -14.0505 -14.0503 -14.0494 -14.0485 -14.0478 -14.0379 -14.0372
   -14.0362 -14.0354 -10.4247 -10.4216 -10.3867 -10.3841 -10.3494 -10.3472
    -9.6261  -9.6187  -9.5145  -9.3971  -9.3662  -9.3195  -9.2709  -9.2227
    -9.2092  -9.1791  -9.1319  -9.1154  -9.0778  -9.0351  -9.0250  -9.0051
    -9.0002  -8.9981  -8.9734  -8.9690  -8.9285  -8.8791  -8.8505  -8.8324
    -8.7977  -8.7842  -7.6100  -7.6062  -7.0334  -7.0312  -6.9208  -6.9143
    -6.8789  -6.8751  -6.8413  -6.8393  -6.8260  -6.8192  -6.8026  -6.8001
    -6.7698  -6.7657  -5.7284  -5.3206  -5.2882  -5.2789  -5.2699  -5.2564
    -4.8871  -4.8647  -4.8519  -4.7826  -4.7594  -4.7450  -4.7341  -4.7001
    -4.6884  -4.4267  -3.7403  -3.7384  -3.1834  -3.1813  -2.7081  -2.6977
    -2.6762  -2.6694  -2.6584  -2.6526  -2.6475  -2.6424  -2.6362  -2.6337
    -2.6258  -2.6189  -0.7972  -0.7571  -0.6698  -0.6682  -0.6336  -0.5734
    -0.5694  -0.5385  -0.4902  -0.4194  -0.4175  -0.3486  -0.0001   0.0976
     0.3916   0.3955   0.4399   0.4721   0.5068   0.5087   0.5617   0.6240
     0.6734   0.6800   0.7292   0.7606   0.8192   0.8750   0.8881   0.9229
     0.9463   0.9718   1.0169   1.0258   1.0533   1.0795   1.1010   1.1082
     1.1287   1.1401   1.1550   1.1679   1.1689   1.2046   1.2139   1.2492
     1.2658   1.2974   1.3225   1.3532   1.3626   1.3723   1.4122   1.4278
     1.4481   1.4595   1.4776   1.4932   1.5207   1.5326   1.5645   1.5930
     1.6235   1.6612   1.6677   1.7421   1.7470   1.8316   1.8480   1.8819
     1.9331   1.9704   2.0115   2.2230

          k = 0.1250 0.1246 0.3665 (297776 PWs)   bands (ev):

   -17.7630 -17.7619 -17.4775 -17.4729 -17.4387 -17.4344 -17.3651 -17.3616
   -15.6235 -15.6222 -14.1183 -14.1172 -14.1105 -14.1097 -14.0978 -14.0965
   -14.0929 -14.0916 -14.0910 -14.0872 -14.0867 -14.0847 -14.0754 -14.0745
   -14.0743 -14.0740 -14.0730 -14.0729 -14.0721 -14.0708 -14.0674 -14.0670
   -14.0667 -14.0662 -14.0603 -14.0590 -14.0530 -14.0528 -14.0522 -14.0516
   -14.0509 -14.0505 -14.0503 -14.0494 -14.0485 -14.0478 -14.0379 -14.0372
   -14.0362 -14.0354 -10.4244 -10.4215 -10.3867 -10.3843 -10.3493 -10.3474
    -9.6187  -9.6163  -9.4904  -9.4341  -9.3620  -9.3096  -9.3046  -9.2525
    -9.2359  -9.2174  -9.0653  -9.0592  -9.0443  -9.0329  -9.0223  -9.0157
    -9.0104  -8.9963  -8.9577  -8.9412  -8.9234  -8.8945  -8.8824  -8.8599
    -8.7933  -8.7876  -7.6092  -7.6076  -7.0334  -7.0312  -6.9185  -6.9124
    -6.8785  -6.8756  -6.8406  -6.8393  -6.8215  -6.8178  -6.8079  -6.8050
    -6.7691  -6.7653  -5.6061  -5.4185  -5.2787  -5.2780  -5.1993  -5.1575
    -5.0133  -4.9852  -4.8052  -4.7820  -4.7628  -4.7487  -4.7240  -4.7031
    -4.6793  -4.5660  -3.7405  -3.7387  -3.1830  -3.1818  -2.7015  -2.6981
    -2.6770  -2.6734  -2.6662  -2.6599  -2.6474  -2.6440  -2.6319  -2.6292
    -2.6187  -2.6140  -0.6447  -0.6125  -0.6118  -0.5619  -0.5066  -0.4693
    -0.4621  -0.4326  -0.3143  -0.3095  -0.2372  -0.1742   0.0086   0.0719
     0.2462   0.2948   0.3561   0.4016   0.4640   0.4734   0.4971   0.5268
     0.5329   0.5538   0.5864   0.6184   0.6291   0.6592   0.8455   0.8853
     0.8918   0.9203   1.0002   1.0056   1.0145   1.0296   1.0578   1.0739
     1.0988   1.1168   1.1462   1.1497   1.2072   1.2219   1.2728   1.2803
     1.3200   1.3224   1.3491   1.3674   1.3760   1.3803   1.4335   1.4450
     1.4534   1.4656   1.4846   1.4985   1.5126   1.5257   1.5639   1.5706
     1.6187   1.6239   1.6641   1.7066   1.7158   1.7791   1.7904   1.8084
     1.8560   1.8604   2.0190   2.0657

          k = 0.1250 0.3737 0.1222 (297764 PWs)   bands (ev):

   -17.7630 -17.7619 -17.4775 -17.4729 -17.4387 -17.4344 -17.3651 -17.3616
   -15.6235 -15.6222 -14.1204 -14.1193 -14.1082 -14.1073 -14.0976 -14.0962
   -14.0940 -14.0933 -14.0899 -14.0883 -14.0843 -14.0832 -14.0754 -14.0747
   -14.0743 -14.0739 -14.0731 -14.0730 -14.0729 -14.0715 -14.0674 -14.0670
   -14.0667 -14.0662 -14.0603 -14.0590 -14.0530 -14.0528 -14.0522 -14.0516
   -14.0509 -14.0505 -14.0503 -14.0494 -14.0485 -14.0478 -14.0379 -14.0372
   -14.0362 -14.0354 -10.4242 -10.4214 -10.3863 -10.3839 -10.3499 -10.3481
    -9.6246  -9.6225  -9.4767  -9.4243  -9.3575  -9.2990  -9.2952  -9.2526
    -9.2080  -9.2011  -9.1388  -9.1333  -9.0671  -9.0582  -9.0179  -9.0093
    -8.9917  -8.9689  -8.9595  -8.9475  -8.8835  -8.8724  -8.8603  -8.8280
    -8.8246  -8.8050  -7.6085  -7.6071  -7.0334  -7.0312  -6.9206  -6.9145
    -6.8782  -6.8752  -6.8413  -6.8390  -6.8256  -6.8207  -6.8028  -6.8002
    -6.7699  -6.7658  -5.6129  -5.4397  -5.2803  -5.2787  -5.1782  -5.1578
    -5.0159  -4.9920  -4.8015  -4.7826  -4.7496  -4.7470  -4.7194  -4.7034
    -4.6707  -4.5488  -3.7407  -3.7389  -3.1830  -3.1818  -2.7014  -2.6978
    -2.6728  -2.6691  -2.6566  -2.6518  -2.6473  -2.6441  -2.6384  -2.6332
    -2.6293  -2.6232  -0.7682  -0.7487  -0.6562  -0.6292  -0.5992  -0.5730
    -0.5289  -0.4674  -0.2960  -0.1729  -0.1042  -0.0453   0.0731   0.0805
     0.1874   0.3345   0.3892   0.4275   0.4346   0.4675   0.5167   0.5633
     0.5683   0.5940   0.6345   0.6791   0.7304   0.7905   0.8286   0.8550
     0.8873   0.9043   0.9940   1.0032   1.0347   1.0547   1.0780   1.0843
     1.1080   1.1101   1.1568   1.1746   1.1914   1.1931   1.2285   1.2432
     1.2629   1.2844   1.3167   1.3381   1.3645   1.3682   1.4060   1.4207
     1.4379   1.4687   1.4760   1.5200   1.5579   1.5653   1.5838   1.5878
     1.6022   1.6254   1.6650   1.6960   1.7541   1.8146   1.8233   1.8346
     1.8666   1.8784   2.0016   2.0618

          k = 0.1250 0.3737 0.3665 (297766 PWs)   bands (ev):

   -17.7630 -17.7619 -17.4775 -17.4729 -17.4387 -17.4344 -17.3651 -17.3616
   -15.6235 -15.6222 -14.1182 -14.1171 -14.1104 -14.1095 -14.0972 -14.0959
   -14.0922 -14.0916 -14.0901 -14.0879 -14.0865 -14.0854 -14.0754 -14.0747
   -14.0743 -14.0739 -14.0731 -14.0730 -14.0729 -14.0715 -14.0674 -14.0670
   -14.0667 -14.0662 -14.0603 -14.0590 -14.0530 -14.0528 -14.0522 -14.0516
   -14.0509 -14.0505 -14.0503 -14.0494 -14.0485 -14.0479 -14.0379 -14.0372
   -14.0362 -14.0354 -10.4241 -10.4213 -10.3863 -10.3839 -10.3499 -10.3481
    -9.6195  -9.6187  -9.4566  -9.4238  -9.3547  -9.3260  -9.3206  -9.2838
    -9.2501  -9.2318  -9.0670  -9.0649  -9.0408  -9.0384  -9.0231  -9.0155
    -8.9888  -8.9846  -8.9451  -8.9408  -8.9110  -8.8900  -8.8611  -8.8423
    -8.8190  -8.8098  -7.6084  -7.6078  -7.0334  -7.0312  -6.9185  -6.9125
    -6.8783  -6.8753  -6.8412  -6.8386  -6.8215  -6.8187  -6.8080  -6.8051
    -6.7692  -6.7654  -5.4939  -5.3315  -5.3080  -5.2790  -5.2675  -5.1368
    -5.0674  -4.9231  -4.8887  -4.7974  -4.7653  -4.7584  -4.7294  -4.7132
    -4.6857  -4.6573  -3.7409  -3.7391  -3.1829  -3.1820  -2.6996  -2.6989
    -2.6753  -2.6726  -2.6634  -2.6580  -2.6464  -2.6439  -2.6344  -2.6324
    -2.6189  -2.6149  -0.6067  -0.5761  -0.5398  -0.5020  -0.4092  -0.3623
    -0.3022  -0.2274  -0.2140  -0.1688  -0.1029  -0.0739   0.0577   0.0644
     0.2049   0.2120   0.2995   0.3287   0.3701   0.3981   0.4160   0.4541
     0.5011   0.5143   0.5567   0.5651   0.7071   0.7078   0.7622   0.7971
     0.8391   0.8432   0.9042   0.9115   0.9352   0.9360   1.0215   1.0337
     1.0626   1.0643   1.1303   1.1388   1.1549   1.1675   1.2419   1.2569
     1.3003   1.3156   1.3388   1.3531   1.3845   1.4003   1.4347   1.4540
     1.4848   1.4888   1.4999   1.5100   1.5428   1.5493   1.5698   1.5766
     1.6018   1.6204   1.6656   1.6697   1.7150   1.7269   1.7978   1.8140
     1.8400   1.8470   1.8823   1.8986

          k = 0.3750 0.1246 0.1222 (297756 PWs)   bands (ev):

   -17.7630 -17.7619 -17.4775 -17.4729 -17.4387 -17.4344 -17.3651 -17.3616
   -15.6235 -15.6222 -14.1203 -14.1193 -14.1082 -14.1073 -14.0972 -14.0960
   -14.0941 -14.0933 -14.0899 -14.0884 -14.0847 -14.0835 -14.0754 -14.0744
   -14.0743 -14.0741 -14.0732 -14.0730 -14.0726 -14.0716 -14.0674 -14.0670
   -14.0667 -14.0662 -14.0603 -14.0590 -14.0530 -14.0528 -14.0521 -14.0517
   -14.0509 -14.0505 -14.0503 -14.0494 -14.0485 -14.0478 -14.0379 -14.0372
   -14.0362 -14.0354 -10.4243 -10.4215 -10.3866 -10.3842 -10.3499 -10.3480
    -9.6144  -9.6134  -9.4938  -9.4490  -9.3502  -9.3019  -9.2903  -9.2420
    -9.2051  -9.2014  -9.1351  -9.1312  -9.0800  -9.0642  -8.9979  -8.9921
    -8.9807  -8.9789  -8.9665  -8.9573  -8.8826  -8.8720  -8.8679  -8.8286
    -8.8217  -8.8081  -7.6090  -7.6076  -7.0339  -7.0318  -6.9208  -6.9147
    -6.8789  -6.8752  -6.8409  -6.8399  -6.8241  -6.8195  -6.8020  -6.7995
    -6.7698  -6.7658  -5.6095  -5.4307  -5.2805  -5.2794  -5.1881  -5.1557
    -5.0208  -4.9834  -4.7984  -4.7815  -4.7576  -4.7492  -4.7184  -4.7018
    -4.6765  -4.5550  -3.7410  -3.7391  -3.1830  -3.1819  -2.7050  -2.7007
    -2.6762  -2.6717  -2.6572  -2.6519  -2.6466  -2.6415  -2.6369  -2.6335
    -2.6246  -2.6202  -0.7818  -0.7690  -0.6441  -0.6183  -0.6011  -0.5652
    -0.4359  -0.3989  -0.2827  -0.2386  -0.1730  -0.0935   0.0368   0.1259
     0.2216   0.3440   0.4004   0.4282   0.4299   0.4864   0.4889   0.5381
     0.5735   0.5918   0.6480   0.6774   0.7327   0.7752   0.8361   0.8774
     0.8812   0.9537   0.9794   0.9985   1.0126   1.0621   1.0978   1.1017
     1.1346   1.1398   1.1615   1.1640   1.1776   1.2013   1.2318   1.2487
     1.2774   1.3147   1.3258   1.3332   1.3519   1.3639   1.3789   1.3882
     1.3977   1.4045   1.4842   1.4940   1.5330   1.5370   1.5861   1.5871
     1.5958   1.6176   1.6636   1.7071   1.7547   1.7973   1.8446   1.8513
     1.8663   1.9052   1.9883   2.0526

          k = 0.3750 0.1246 0.3665 (297852 PWs)   bands (ev):

   -17.7630 -17.7619 -17.4775 -17.4729 -17.4387 -17.4344 -17.3651 -17.3616
   -15.6235 -15.6222 -14.1182 -14.1171 -14.1103 -14.1095 -14.0969 -14.0958
   -14.0923 -14.0913 -14.0901 -14.0880 -14.0871 -14.0857 -14.0754 -14.0744
   -14.0744 -14.0741 -14.0732 -14.0730 -14.0726 -14.0716 -14.0674 -14.0670
   -14.0667 -14.0662 -14.0603 -14.0590 -14.0530 -14.0528 -14.0521 -14.0516
   -14.0509 -14.0505 -14.0503 -14.0494 -14.0485 -14.0479 -14.0379 -14.0372
   -14.0362 -14.0354 -10.4241 -10.4213 -10.3866 -10.3843 -10.3499 -10.3481
    -9.6118  -9.6115  -9.4625  -9.4159  -9.3985  -9.3510  -9.2998  -9.2679
    -9.2462  -9.2277  -9.0639  -9.0602  -9.0335  -9.0306  -9.0142  -9.0077
    -9.0004  -8.9896  -8.9450  -8.9435  -8.9127  -8.8965  -8.8605  -8.8417
    -8.8205  -8.8134  -7.6090  -7.6084  -7.0340  -7.0318  -6.9187  -6.9127
    -6.8788  -6.8754  -6.8404  -6.8397  -6.8199  -6.8173  -6.8075  -6.8047
    -6.7690  -6.7652  -5.4902  -5.3214  -5.3020  -5.2794  -5.2729  -5.1289
    -5.0771  -4.9193  -4.9062  -4.7988  -4.7656  -4.7587  -4.7308  -4.7139
    -4.6855  -4.6599  -3.7411  -3.7393  -3.1829  -3.1820  -2.7000  -2.6994
    -2.6805  -2.6771  -2.6635  -2.6565  -2.6480  -2.6422  -2.6304  -2.6285
    -2.6190  -2.6151  -0.5903  -0.5597  -0.5138  -0.5003  -0.3625  -0.3343
    -0.3147  -0.2597  -0.2166  -0.1995  -0.1116  -0.0994   0.0317   0.0422
     0.2289   0.2517   0.3130   0.3157   0.3539   0.3834   0.4205   0.4505
     0.4761   0.5181   0.5780   0.5918   0.7153   0.7208   0.7820   0.7938
     0.8486   0.8496   0.9220   0.9353   0.9658   0.9715   0.9961   1.0353
     1.0547   1.0716   1.0824   1.1059   1.1487   1.1698   1.2329   1.2843
     1.3019   1.3271   1.3593   1.3654   1.3707   1.3820   1.4042   1.4102
     1.4649   1.4728   1.4930   1.5057   1.5157   1.5192   1.5754   1.5761
     1.5898   1.6122   1.6499   1.6785   1.7381   1.7417   1.7855   1.7873
     1.8295   1.8497   1.9106   1.9267

          k = 0.3750 0.3737 0.1222 (297807 PWs)   bands (ev):

   -17.7630 -17.7619 -17.4775 -17.4729 -17.4387 -17.4344 -17.3651 -17.3616
   -15.6235 -15.6222 -14.1203 -14.1192 -14.1080 -14.1072 -14.0964 -14.0952
   -14.0942 -14.0933 -14.0892 -14.0882 -14.0849 -14.0839 -14.0754 -14.0749
   -14.0744 -14.0742 -14.0736 -14.0734 -14.0729 -14.0723 -14.0674 -14.0671
   -14.0667 -14.0662 -14.0603 -14.0590 -14.0530 -14.0528 -14.0521 -14.0517
   -14.0509 -14.0505 -14.0503 -14.0494 -14.0485 -14.0479 -14.0379 -14.0372
   -14.0362 -14.0354 -10.4245 -10.4214 -10.3866 -10.3837 -10.3502 -10.3479
    -9.6170  -9.6162  -9.4549  -9.4315  -9.3911  -9.3280  -9.2667  -9.2554
    -9.2044  -9.2024  -9.1490  -9.1345  -9.1063  -9.1018  -8.9821  -8.9789
    -8.9661  -8.9584  -8.9445  -8.9245  -8.8826  -8.8654  -8.8577  -8.8498
    -8.8299  -8.8276  -7.6080  -7.6078  -7.0339  -7.0317  -6.9209  -6.9147
    -6.8787  -6.8750  -6.8415  -6.8392  -6.8255  -6.8190  -6.8022  -6.7994
    -6.7701  -6.7658  -5.4976  -5.3568  -5.2863  -5.2800  -5.2793  -5.1509
    -5.0547  -4.9075  -4.8772  -4.7976  -4.7634  -4.7586  -4.7319  -4.7088
    -4.6833  -4.6478  -3.7414  -3.7395  -3.1829  -3.1820  -2.7005  -2.6989
    -2.6742  -2.6697  -2.6550  -2.6515  -2.6485  -2.6432  -2.6365  -2.6355
    -2.6271  -2.6228  -0.7564  -0.7478  -0.6530  -0.6289  -0.3480  -0.2809
    -0.2588  -0.2347  -0.1901  -0.1597  -0.0940  -0.0465   0.0969   0.1084
     0.2105   0.2120   0.3756   0.3785   0.4277   0.4439   0.4638   0.4837
     0.4952   0.5690   0.5715   0.5833   0.6254   0.6691   0.6908   0.7880
     0.8636   0.9507   0.9699   1.0050   1.0064   1.0512   1.0787   1.1056
     1.1155   1.1198   1.1379   1.1543   1.1570   1.1865   1.2018   1.2245
     1.2565   1.2634   1.3086   1.3123   1.3366   1.3448   1.3580   1.3771
     1.3818   1.4167   1.4450   1.4505   1.4868   1.5296   1.5781   1.5853
     1.6104   1.6273   1.6855   1.6996   1.7448   1.7566   1.8115   1.8335
     1.8491   1.8590   1.9375   1.9578

          k = 0.3750 0.3737 0.3665 (297813 PWs)   bands (ev):

   -17.7630 -17.7619 -17.4775 -17.4729 -17.4387 -17.4344 -17.3651 -17.3616
   -15.6235 -15.6222 -14.1181 -14.1170 -14.1102 -14.1094 -14.0962 -14.0950
   -14.0919 -14.0910 -14.0895 -14.0880 -14.0873 -14.0863 -14.0754 -14.0749
   -14.0744 -14.0742 -14.0736 -14.0734 -14.0729 -14.0723 -14.0675 -14.0671
   -14.0667 -14.0662 -14.0603 -14.0590 -14.0530 -14.0528 -14.0521 -14.0516
   -14.0509 -14.0505 -14.0503 -14.0494 -14.0485 -14.0479 -14.0379 -14.0372
   -14.0362 -14.0354 -10.4243 -10.4214 -10.3863 -10.3839 -10.3500 -10.3482
    -9.6142  -9.6140  -9.4279  -9.4062  -9.3767  -9.3420  -9.3302  -9.3086
    -9.2678  -9.2468  -9.0727  -9.0623  -9.0431  -9.0351  -9.0029  -9.0010
    -8.9897  -8.9783  -8.9297  -8.9171  -8.9019  -8.8925  -8.8528  -8.8464
    -8.8345  -8.8319  -7.6084  -7.6081  -7.0339  -7.0317  -6.9188  -6.9127
    -6.8783  -6.8754  -6.8408  -6.8393  -6.8208  -6.8172  -6.8076  -6.8045
    -6.7692  -6.7653  -5.3823  -5.2845  -5.2789  -5.2404  -5.1940  -5.1746
    -5.0582  -5.0410  -5.0032  -4.8828  -4.7704  -4.7667  -4.7334  -4.7259
    -4.6865  -4.6817  -3.7415  -3.7396  -3.1830  -3.1821  -2.7001  -2.6985
    -2.6791  -2.6756  -2.6599  -2.6563  -2.6461  -2.6424  -2.6335  -2.6315
    -2.6189  -2.6149  -0.4058  -0.3845  -0.3345  -0.3332  -0.2660  -0.2629
    -0.2335  -0.1885  -0.1805  -0.1517  -0.0920  -0.0854   0.0491   0.0743
     0.2125   0.2298   0.2711   0.3101   0.3146   0.3346   0.3507   0.3796
     0.4250   0.4554   0.4745   0.4885   0.7331   0.7397   0.7531   0.8003
     0.8264   0.8517   0.8814   0.8962   0.9119   0.9215   0.9797   0.9876
     1.0196   1.0311   1.0717   1.0893   1.1299   1.1609   1.1620   1.1705
     1.2336   1.2549   1.2978   1.3173   1.3602   1.3654   1.3848   1.4012
     1.4199   1.4338   1.4888   1.4930   1.5160   1.5182   1.5424   1.5668
     1.5942   1.6032   1.6557   1.6726   1.7214   1.7226   1.7854   1.7872
     1.8361   1.8419   1.8602   1.8686

          k =-0.1250-0.1246 0.1222 (297733 PWs)   bands (ev):

   -17.7630 -17.7619 -17.4775 -17.4729 -17.4387 -17.4344 -17.3651 -17.3616
   -15.6235 -15.6222 -14.1205 -14.1194 -14.1083 -14.1075 -14.0983 -14.0966
   -14.0942 -14.0935 -14.0910 -14.0878 -14.0844 -14.0827 -14.0754 -14.0745
   -14.0743 -14.0740 -14.0730 -14.0729 -14.0721 -14.0708 -14.0674 -14.0670
   -14.0667 -14.0662 -14.0603 -14.0590 -14.0530 -14.0528 -14.0522 -14.0516
   -14.0509 -14.0505 -14.0503 -14.0494 -14.0485 -14.0478 -14.0379 -14.0372
   -14.0362 -14.0354 -10.4247 -10.4216 -10.3867 -10.3842 -10.3494 -10.3472
    -9.6260  -9.6188  -9.5144  -9.3976  -9.3669  -9.3187  -9.2710  -9.2221
    -9.2095  -9.1782  -9.1314  -9.1169  -9.0785  -9.0345  -9.0259  -9.0062
    -8.9992  -8.9967  -8.9719  -8.9699  -8.9292  -8.8791  -8.8507  -8.8326
    -8.7973  -8.7843  -7.6100  -7.6062  -7.0334  -7.0312  -6.9208  -6.9142
    -6.8789  -6.8751  -6.8410  -6.8393  -6.8262  -6.8192  -6.8026  -6.8001
    -6.7698  -6.7657  -5.7284  -5.3205  -5.2876  -5.2789  -5.2712  -5.2558
    -4.8867  -4.8640  -4.8529  -4.7826  -4.7593  -4.7451  -4.7342  -4.7001
    -4.6886  -4.4266  -3.7403  -3.7383  -3.1834  -3.1813  -2.7084  -2.6976
    -2.6763  -2.6676  -2.6588  -2.6548  -2.6464  -2.6412  -2.6364  -2.6341
    -2.6265  -2.6189  -0.7966  -0.7574  -0.6698  -0.6690  -0.6322  -0.5731
    -0.5705  -0.5389  -0.4893  -0.4201  -0.4175  -0.3488  -0.0001   0.0977
     0.3920   0.3950   0.4397   0.4723   0.5073   0.5089   0.5614   0.6240
     0.6730   0.6799   0.7292   0.7639   0.8214   0.8751   0.8814   0.9200
     0.9504   0.9711   1.0153   1.0272   1.0531   1.0760   1.1017   1.1062
     1.1304   1.1392   1.1572   1.1677   1.1685   1.2037   1.2157   1.2514
     1.2663   1.3007   1.3244   1.3518   1.3610   1.3705   1.4150   1.4267
     1.4456   1.4602   1.4800   1.4916   1.5221   1.5322   1.5634   1.5910
     1.6252   1.6610   1.6675   1.7419   1.7468   1.8320   1.8475   1.8817
     1.9342   1.9710   2.0095   2.2232

          k =-0.1250 0.1246-0.1222 (297733 PWs)   bands (ev):

   -17.7630 -17.7619 -17.4775 -17.4729 -17.4387 -17.4344 -17.3651 -17.3616
   -15.6235 -15.6222 -14.1205 -14.1194 -14.1083 -14.1075 -14.0983 -14.0966
   -14.0942 -14.0935 -14.0910 -14.0878 -14.0844 -14.0827 -14.0754 -14.0745
   -14.0743 -14.0740 -14.0730 -14.0728 -14.0721 -14.0708 -14.0674 -14.0670
   -14.0667 -14.0662 -14.0603 -14.0590 -14.0530 -14.0528 -14.0522 -14.0516
   -14.0509 -14.0505 -14.0503 -14.0494 -14.0485 -14.0478 -14.0379 -14.0372
   -14.0362 -14.0354 -10.4250 -10.4217 -10.3868 -10.3840 -10.3494 -10.3467
    -9.6273  -9.6186  -9.5154  -9.3960  -9.3622  -9.3165  -9.2777  -9.2205
    -9.2130  -9.1758  -9.1334  -9.1110  -9.0922  -9.0301  -9.0217  -9.0051
    -8.9997  -8.9815  -8.9785  -8.9684  -8.9400  -8.8802  -8.8498  -8.8350
    -8.7959  -8.7819  -7.6101  -7.6061  -7.0335  -7.0312  -6.9209  -6.9142
    -6.8788  -6.8751  -6.8405  -6.8399  -6.8252  -6.8201  -6.8026  -6.8000
    -6.7697  -6.7658  -5.7286  -5.3175  -5.2866  -5.2793  -5.2743  -5.2565
    -4.8862  -4.8669  -4.8515  -4.7839  -4.7625  -4.7443  -4.7321  -4.6991
    -4.6862  -4.4269  -3.7402  -3.7383  -3.1835  -3.1813  -2.7088  -2.6976
    -2.6761  -2.6681  -2.6585  -2.6535  -2.6469  -2.6413  -2.6372  -2.6342
    -2.6254  -2.6190  -0.7990  -0.7576  -0.7070  -0.6696  -0.5997  -0.5757
    -0.5702  -0.5357  -0.4845  -0.4135  -0.4119  -0.3514   0.0010   0.0977
     0.3833   0.4071   0.4448   0.4720   0.5022   0.5098   0.5523   0.6288
     0.6663   0.6716   0.7178   0.7794   0.8130   0.8634   0.8807   0.9171
     0.9433   0.9775   1.0189   1.0303   1.0412   1.0490   1.0939   1.1193
     1.1236   1.1406   1.1556   1.1781   1.1849   1.2165   1.2412   1.2495
     1.2744   1.2952   1.3176   1.3560   1.3621   1.3988   1.4139   1.4254
     1.4386   1.4698   1.4881   1.4914   1.5010   1.5248   1.5665   1.5704
     1.6329   1.6625   1.6638   1.7432   1.7438   1.8325   1.8449   1.8759
     1.9336   1.9689   2.0224   2.2299

          k = 0.1250-0.1246-0.1222 (297733 PWs)   bands (ev):

   -17.7630 -17.7619 -17.4775 -17.4729 -17.4387 -17.4344 -17.3651 -17.3616
   -15.6235 -15.6222 -14.1205 -14.1194 -14.1083 -14.1075 -14.0983 -14.0966
   -14.0942 -14.0935 -14.0910 -14.0878 -14.0844 -14.0827 -14.0754 -14.0745
   -14.0743 -14.0740 -14.0730 -14.0728 -14.0721 -14.0708 -14.0674 -14.0670
   -14.0667 -14.0662 -14.0603 -14.0590 -14.0530 -14.0528 -14.0522 -14.0516
   -14.0509 -14.0505 -14.0503 -14.0494 -14.0485 -14.0478 -14.0379 -14.0372
   -14.0362 -14.0354 -10.4250 -10.4217 -10.3868 -10.3840 -10.3493 -10.3467
    -9.6273  -9.6186  -9.5155  -9.3959  -9.3621  -9.3167  -9.2775  -9.2212
    -9.2133  -9.1756  -9.1333  -9.1091  -9.0929  -9.0286  -9.0230  -9.0061
    -8.9995  -8.9838  -8.9789  -8.9664  -8.9393  -8.8803  -8.8497  -8.8349
    -8.7961  -8.7819  -7.6101  -7.6061  -7.0335  -7.0312  -6.9209  -6.9142
    -6.8785  -6.8755  -6.8411  -6.8393  -6.8252  -6.8201  -6.8026  -6.8000
    -6.7697  -6.7658  -5.7286  -5.3178  -5.2867  -5.2793  -5.2736  -5.2567
    -4.8866  -4.8675  -4.8504  -4.7840  -4.7625  -4.7443  -4.7323  -4.6991
    -4.6862  -4.4269  -3.7402  -3.7383  -3.1835  -3.1813  -2.7082  -2.6976
    -2.6765  -2.6677  -2.6589  -2.6546  -2.6476  -2.6423  -2.6345  -2.6341
    -2.6250  -2.6194  -0.7989  -0.7570  -0.7078  -0.6698  -0.5982  -0.5755
    -0.5713  -0.5351  -0.4853  -0.4136  -0.4119  -0.3514   0.0009   0.0977
     0.3836   0.4068   0.4453   0.4717   0.5022   0.5092   0.5533   0.6279
     0.6657   0.6725   0.7173   0.7764   0.8119   0.8698   0.8812   0.9179
     0.9437   0.9773   1.0199   1.0290   1.0440   1.0511   1.0944   1.1165
     1.1224   1.1413   1.1557   1.1780   1.1812   1.2151   1.2385   1.2489
     1.2744   1.2978   1.3168   1.3555   1.3613   1.4008   1.4117   1.4257
     1.4420   1.4723   1.4828   1.4940   1.5021   1.5250   1.5631   1.5708
     1.6327   1.6634   1.6650   1.7425   1.7434   1.8325   1.8457   1.8765
     1.9337   1.9673   2.0230   2.2307

          k =-0.1250-0.1246 0.3665 (297776 PWs)   bands (ev):

   -17.7630 -17.7619 -17.4775 -17.4729 -17.4387 -17.4344 -17.3651 -17.3616
   -15.6235 -15.6222 -14.1183 -14.1172 -14.1105 -14.1097 -14.0978 -14.0965
   -14.0929 -14.0916 -14.0910 -14.0872 -14.0867 -14.0847 -14.0754 -14.0745
   -14.0743 -14.0740 -14.0730 -14.0729 -14.0721 -14.0708 -14.0674 -14.0670
   -14.0667 -14.0662 -14.0603 -14.0590 -14.0530 -14.0528 -14.0522 -14.0516
   -14.0509 -14.0505 -14.0503 -14.0494 -14.0485 -14.0478 -14.0379 -14.0372
   -14.0362 -14.0354 -10.4244 -10.4215 -10.3867 -10.3843 -10.3493 -10.3474
    -9.6186  -9.6163  -9.4899  -9.4352  -9.3620  -9.3095  -9.3044  -9.2522
    -9.2356  -9.2175  -9.0647  -9.0605  -9.0458  -9.0320  -9.0213  -9.0167
    -9.0106  -8.9948  -8.9588  -8.9391  -8.9242  -8.8948  -8.8831  -8.8598
    -8.7929  -8.7878  -7.6092  -7.6076  -7.0334  -7.0312  -6.9186  -6.9124
    -6.8785  -6.8756  -6.8403  -6.8394  -6.8219  -6.8176  -6.8079  -6.8050
    -6.7691  -6.7653  -5.6061  -5.4185  -5.2788  -5.2779  -5.1995  -5.1575
    -5.0132  -4.9849  -4.8050  -4.7820  -4.7627  -4.7489  -4.7242  -4.7032
    -4.6799  -4.5656  -3.7405  -3.7387  -3.1830  -3.1818  -2.7025  -2.6971
    -2.6768  -2.6726  -2.6653  -2.6615  -2.6480  -2.6426  -2.6327  -2.6286
    -2.6197  -2.6137  -0.6446  -0.6123  -0.6113  -0.5627  -0.5066  -0.4695
    -0.4601  -0.4334  -0.3149  -0.3095  -0.2383  -0.1743   0.0088   0.0721
     0.2461   0.2962   0.3574   0.4026   0.4632   0.4716   0.4944   0.5264
     0.5336   0.5547   0.5856   0.6232   0.6277   0.6582   0.8466   0.8831
     0.8907   0.9214   0.9983   1.0025   1.0144   1.0304   1.0610   1.0731
     1.1023   1.1154   1.1468   1.1485   1.2099   1.2194   1.2711   1.2832
     1.3164   1.3259   1.3521   1.3645   1.3759   1.3814   1.4317   1.4413
     1.4547   1.4715   1.4857   1.4984   1.5121   1.5227   1.5628   1.5712
     1.6184   1.6238   1.6649   1.7057   1.7155   1.7804   1.7914   1.8057
     1.8570   1.8602   2.0179   2.0665

          k =-0.1250 0.1246-0.3665 (297776 PWs)   bands (ev):

   -17.7630 -17.7619 -17.4775 -17.4729 -17.4387 -17.4344 -17.3651 -17.3616
   -15.6235 -15.6222 -14.1183 -14.1172 -14.1105 -14.1097 -14.0978 -14.0965
   -14.0929 -14.0916 -14.0910 -14.0872 -14.0867 -14.0847 -14.0754 -14.0745
   -14.0743 -14.0740 -14.0730 -14.0729 -14.0721 -14.0708 -14.0674 -14.0670
   -14.0667 -14.0662 -14.0603 -14.0590 -14.0530 -14.0528 -14.0522 -14.0516
   -14.0509 -14.0505 -14.0503 -14.0494 -14.0485 -14.0478 -14.0379 -14.0372
   -14.0362 -14.0354 -10.4246 -10.4217 -10.3867 -10.3843 -10.3490 -10.3471
    -9.6193  -9.6163  -9.4913  -9.4357  -9.3599  -9.3082  -9.2994  -9.2534
    -9.2363  -9.2215  -9.0671  -9.0571  -9.0515  -9.0340  -9.0164  -9.0156
    -9.0106  -8.9906  -8.9633  -8.9358  -8.9219  -8.9017  -8.8792  -8.8646
    -8.7913  -8.7859  -7.6093  -7.6076  -7.0335  -7.0313  -6.9186  -6.9124
    -6.8788  -6.8752  -6.8405  -6.8393  -6.8212  -6.8182  -6.8079  -6.8051
    -6.7690  -6.7652  -5.6060  -5.4180  -5.2791  -5.2783  -5.1969  -5.1607
    -5.0112  -4.9882  -4.8039  -4.7829  -4.7637  -4.7475  -4.7240  -4.7025
    -4.6785  -4.5661  -3.7405  -3.7386  -3.1830  -3.1818  -2.7028  -2.6972
    -2.6766  -2.6726  -2.6653  -2.6606  -2.6474  -2.6439  -2.6326  -2.6292
    -2.6191  -2.6136  -0.6753  -0.6363  -0.5838  -0.5448  -0.5010  -0.4704
    -0.4575  -0.4234  -0.3212  -0.3001  -0.2407  -0.1743   0.0087   0.0725
     0.2438   0.2952   0.3571   0.4093   0.4607   0.4713   0.5045   0.5157
     0.5273   0.5491   0.5961   0.6071   0.6248   0.6722   0.8478   0.8848
     0.8858   0.8989   0.9658   1.0004   1.0263   1.0276   1.0572   1.0769
     1.0901   1.1166   1.1383   1.1597   1.2443   1.2502   1.2750   1.2918
     1.3070   1.3260   1.3561   1.3594   1.3840   1.3856   1.4178   1.4267
     1.4624   1.4755   1.4888   1.4913   1.5094   1.5252   1.5658   1.5741
     1.6251   1.6300   1.6615   1.7068   1.7115   1.7796   1.7884   1.7979
     1.8468   1.8500   2.0313   2.0761

          k = 0.1250-0.1246-0.3665 (297776 PWs)   bands (ev):

   -17.7630 -17.7619 -17.4775 -17.4729 -17.4387 -17.4344 -17.3651 -17.3616
   -15.6235 -15.6222 -14.1183 -14.1172 -14.1105 -14.1097 -14.0978 -14.0965
   -14.0929 -14.0917 -14.0910 -14.0873 -14.0867 -14.0847 -14.0754 -14.0745
   -14.0743 -14.0740 -14.0730 -14.0729 -14.0721 -14.0708 -14.0674 -14.0670
   -14.0667 -14.0662 -14.0603 -14.0590 -14.0530 -14.0528 -14.0522 -14.0516
   -14.0509 -14.0505 -14.0503 -14.0494 -14.0485 -14.0478 -14.0379 -14.0372
   -14.0362 -14.0354 -10.4246 -10.4217 -10.3867 -10.3842 -10.3490 -10.3471
    -9.6192  -9.6164  -9.4916  -9.4351  -9.3603  -9.3079  -9.2993  -9.2540
    -9.2359  -9.2218  -9.0677  -9.0560  -9.0497  -9.0322  -9.0199  -9.0178
    -9.0070  -8.9939  -8.9639  -8.9343  -8.9203  -8.9030  -8.8794  -8.8642
    -8.7917  -8.7857  -7.6093  -7.6076  -7.0335  -7.0313  -6.9186  -6.9124
    -6.8784  -6.8757  -6.8409  -6.8389  -6.8213  -6.8180  -6.8079  -6.8051
    -6.7690  -6.7653  -5.6060  -5.4181  -5.2791  -5.2783  -5.1967  -5.1607
    -5.0113  -4.9885  -4.8036  -4.7829  -4.7635  -4.7477  -4.7244  -4.7024
    -4.6784  -4.5662  -3.7405  -3.7386  -3.1830  -3.1818  -2.7017  -2.6975
    -2.6771  -2.6725  -2.6653  -2.6621  -2.6484  -2.6427  -2.6320  -2.6289
    -2.6188  -2.6139  -0.6761  -0.6356  -0.5840  -0.5455  -0.4986  -0.4700
    -0.4574  -0.4232  -0.3222  -0.3020  -0.2408  -0.1743   0.0087   0.0727
     0.2437   0.2952   0.3574   0.4093   0.4616   0.4706   0.5042   0.5182
     0.5271   0.5490   0.5941   0.6072   0.6247   0.6732   0.8482   0.8834
     0.8872   0.8998   0.9667   1.0005   1.0243   1.0301   1.0574   1.0790
     1.0910   1.1120   1.1377   1.1587   1.2396   1.2543   1.2757   1.2890
     1.3072   1.3235   1.3577   1.3587   1.3839   1.3859   1.4215   1.4239
     1.4649   1.4790   1.4892   1.4963   1.5057   1.5200   1.5674   1.5730
     1.6262   1.6277   1.6602   1.7079   1.7134   1.7763   1.7900   1.7985
     1.8470   1.8497   2.0306   2.0773

          k =-0.1250-0.3737 0.1222 (297764 PWs)   bands (ev):

   -17.7630 -17.7619 -17.4775 -17.4729 -17.4387 -17.4344 -17.3651 -17.3616
   -15.6235 -15.6222 -14.1204 -14.1193 -14.1082 -14.1073 -14.0976 -14.0962
   -14.0940 -14.0933 -14.0899 -14.0883 -14.0843 -14.0832 -14.0754 -14.0747
   -14.0743 -14.0739 -14.0731 -14.0730 -14.0729 -14.0715 -14.0674 -14.0670
   -14.0667 -14.0662 -14.0603 -14.0590 -14.0530 -14.0528 -14.0522 -14.0516
   -14.0509 -14.0505 -14.0503 -14.0494 -14.0485 -14.0478 -14.0379 -14.0372
   -14.0362 -14.0354 -10.4241 -10.4214 -10.3863 -10.3839 -10.3499 -10.3481
    -9.6245  -9.6225  -9.4764  -9.4249  -9.3579  -9.2992  -9.2950  -9.2511
    -9.2080  -9.2017  -9.1400  -9.1323  -9.0674  -9.0580  -9.0185  -9.0093
    -8.9914  -8.9666  -8.9614  -8.9470  -8.8842  -8.8717  -8.8608  -8.8315
    -8.8208  -8.8054  -7.6085  -7.6071  -7.0334  -7.0312  -6.9206  -6.9144
    -6.8787  -6.8748  -6.8405  -6.8395  -6.8258  -6.8207  -6.8028  -6.8002
    -6.7699  -6.7659  -5.6129  -5.4397  -5.2802  -5.2787  -5.1787  -5.1574
    -5.0155  -4.9920  -4.8016  -4.7827  -4.7497  -4.7470  -4.7191  -4.7035
    -4.6711  -4.5486  -3.7407  -3.7389  -3.1830  -3.1818  -2.7022  -2.6971
    -2.6726  -2.6672  -2.6587  -2.6529  -2.6458  -2.6425  -2.6383  -2.6346
    -2.6302  -2.6229  -0.7674  -0.7489  -0.6569  -0.6279  -0.6008  -0.5732
    -0.5283  -0.4677  -0.2961  -0.1718  -0.1053  -0.0455   0.0730   0.0808
     0.1876   0.3352   0.3879   0.4279   0.4344   0.4687   0.5171   0.5613
     0.5687   0.5941   0.6356   0.6790   0.7310   0.7893   0.8289   0.8538
     0.8871   0.9043   0.9963   1.0021   1.0325   1.0520   1.0814   1.0841
     1.1086   1.1101   1.1572   1.1761   1.1902   1.1948   1.2270   1.2445
     1.2632   1.2816   1.3172   1.3386   1.3621   1.3694   1.4081   1.4201
     1.4387   1.4675   1.4765   1.5183   1.5595   1.5700   1.5835   1.5874
     1.5997   1.6246   1.6648   1.6952   1.7544   1.8145   1.8235   1.8341
     1.8683   1.8775   2.0005   2.0618

          k =-0.1250 0.3737-0.1222 (297764 PWs)   bands (ev):

   -17.7630 -17.7619 -17.4775 -17.4729 -17.4387 -17.4344 -17.3651 -17.3616
   -15.6235 -15.6222 -14.1204 -14.1193 -14.1082 -14.1073 -14.0976 -14.0962
   -14.0940 -14.0933 -14.0899 -14.0883 -14.0843 -14.0832 -14.0754 -14.0747
   -14.0743 -14.0739 -14.0731 -14.0730 -14.0729 -14.0716 -14.0674 -14.0670
   -14.0667 -14.0662 -14.0603 -14.0590 -14.0530 -14.0528 -14.0522 -14.0516
   -14.0509 -14.0505 -14.0503 -14.0494 -14.0485 -14.0478 -14.0379 -14.0372
   -14.0362 -14.0354 -10.4245 -10.4214 -10.3865 -10.3838 -10.3498 -10.3476
    -9.6265  -9.6216  -9.4793  -9.4227  -9.3399  -9.3174  -9.2961  -9.2451
    -9.2164  -9.1968  -9.1387  -9.1334  -9.0808  -9.0449  -9.0179  -9.0090
    -8.9853  -8.9686  -8.9603  -8.9491  -8.8836  -8.8792  -8.8615  -8.8341
    -8.8194  -8.7999  -7.6088  -7.6068  -7.0334  -7.0312  -6.9207  -6.9144
    -6.8782  -6.8751  -6.8407  -6.8394  -6.8242  -6.8224  -6.8028  -6.8002
    -6.7698  -6.7659  -5.6133  -5.4386  -5.2796  -5.2793  -5.1804  -5.1570
    -5.0141  -4.9935  -4.8036  -4.7837  -4.7530  -4.7455  -4.7156  -4.7032
    -4.6678  -4.5500  -3.7407  -3.7388  -3.1830  -3.1818  -2.7026  -2.6972
    -2.6729  -2.6670  -2.6567  -2.6530  -2.6474  -2.6419  -2.6399  -2.6345
    -2.6283  -2.6234  -0.7755  -0.7406  -0.6582  -0.6462  -0.6049  -0.5652
    -0.5303  -0.4628  -0.2846  -0.1575  -0.0980  -0.0454   0.0758   0.0862
     0.1887   0.3075   0.3936   0.4110   0.4483   0.4856   0.4883   0.5524
     0.5769   0.5971   0.6206   0.6977   0.7327   0.7657   0.8152   0.8454
     0.8780   0.9162   0.9834   1.0111   1.0401   1.0591   1.0672   1.0832
     1.1161   1.1333   1.1518   1.1778   1.1893   1.2247   1.2258   1.2367
     1.2848   1.2878   1.3210   1.3326   1.3460   1.3713   1.4132   1.4158
     1.4547   1.4697   1.5061   1.5099   1.5265   1.5481   1.5515   1.5880
     1.6325   1.6356   1.6684   1.6923   1.7439   1.7989   1.8061   1.8460
     1.8606   1.9062   1.9895   2.0792

          k = 0.1250-0.3737-0.1222 (297764 PWs)   bands (ev):

   -17.7630 -17.7619 -17.4775 -17.4729 -17.4387 -17.4344 -17.3651 -17.3616
   -15.6235 -15.6222 -14.1204 -14.1193 -14.1082 -14.1073 -14.0976 -14.0962
   -14.0940 -14.0933 -14.0899 -14.0883 -14.0843 -14.0832 -14.0754 -14.0747
   -14.0743 -14.0739 -14.0731 -14.0730 -14.0729 -14.0716 -14.0674 -14.0670
   -14.0667 -14.0662 -14.0603 -14.0590 -14.0530 -14.0528 -14.0522 -14.0516
   -14.0509 -14.0505 -14.0503 -14.0494 -14.0485 -14.0478 -14.0379 -14.0372
   -14.0362 -14.0354 -10.4245 -10.4214 -10.3865 -10.3838 -10.3499 -10.3476
    -9.6265  -9.6216  -9.4796  -9.4222  -9.3398  -9.3175  -9.2958  -9.2459
    -9.2170  -9.1967  -9.1391  -9.1315  -9.0810  -9.0446  -9.0179  -9.0099
    -8.9858  -8.9686  -8.9600  -8.9493  -8.8829  -8.8799  -8.8614  -8.8319
    -8.8217  -8.7996  -7.6088  -7.6068  -7.0334  -7.0312  -6.9207  -6.9144
    -6.8782  -6.8752  -6.8406  -6.8395  -6.8241  -6.8224  -6.8028  -6.8002
    -6.7698  -6.7659  -5.6134  -5.4387  -5.2796  -5.2793  -5.1801  -5.1570
    -5.0147  -4.9931  -4.8038  -4.7838  -4.7530  -4.7456  -4.7158  -4.7031
    -4.6674  -4.5501  -3.7407  -3.7388  -3.1830  -3.1818  -2.7015  -2.6977
    -2.6728  -2.6676  -2.6581  -2.6533  -2.6480  -2.6428  -2.6383  -2.6329
    -2.6280  -2.6239  -0.7754  -0.7396  -0.6580  -0.6480  -0.6040  -0.5652
    -0.5312  -0.4627  -0.2847  -0.1574  -0.0978  -0.0455   0.0758   0.0861
     0.1884   0.3078   0.3940   0.4106   0.4488   0.4838   0.4890   0.5542
     0.5771   0.5967   0.6189   0.6991   0.7319   0.7667   0.8148   0.8467
     0.8781   0.9148   0.9820   1.0141   1.0412   1.0591   1.0703   1.0810
     1.1151   1.1321   1.1523   1.1784   1.1861   1.2237   1.2251   1.2369
     1.2836   1.2886   1.3249   1.3314   1.3426   1.3716   1.4130   1.4159
     1.4539   1.4702   1.5073   1.5086   1.5288   1.5466   1.5529   1.5892
     1.6311   1.6364   1.6699   1.6917   1.7432   1.7984   1.8062   1.8454
     1.8622   1.9043   1.9904   2.0792

          k =-0.1250-0.3737 0.3665 (297766 PWs)   bands (ev):

   -17.7630 -17.7619 -17.4775 -17.4729 -17.4387 -17.4344 -17.3651 -17.3616
   -15.6235 -15.6222 -14.1182 -14.1171 -14.1104 -14.1095 -14.0972 -14.0959
   -14.0922 -14.0916 -14.0901 -14.0878 -14.0866 -14.0854 -14.0754 -14.0747
   -14.0743 -14.0739 -14.0731 -14.0730 -14.0729 -14.0715 -14.0674 -14.0670
   -14.0667 -14.0662 -14.0603 -14.0590 -14.0530 -14.0528 -14.0522 -14.0516
   -14.0509 -14.0505 -14.0503 -14.0494 -14.0485 -14.0479 -14.0379 -14.0372
   -14.0362 -14.0354 -10.4241 -10.4213 -10.3863 -10.3839 -10.3500 -10.3481
    -9.6194  -9.6188  -9.4552  -9.4260  -9.3551  -9.3255  -9.3195  -9.2840
    -9.2502  -9.2318  -9.0691  -9.0629  -9.0417  -9.0365  -9.0251  -9.0159
    -8.9888  -8.9828  -8.9456  -8.9403  -8.9109  -8.8908  -8.8601  -8.8445
    -8.8162  -8.8112  -7.6084  -7.6078  -7.0334  -7.0312  -6.9185  -6.9125
    -6.8787  -6.8749  -6.8406  -6.8390  -6.8218  -6.8186  -6.8079  -6.8051
    -6.7692  -6.7654  -5.4939  -5.3293  -5.3101  -5.2790  -5.2679  -5.1364
    -5.0676  -4.9201  -4.8912  -4.7978  -4.7654  -4.7584  -4.7293  -4.7134
    -4.6863  -4.6564  -3.7409  -3.7391  -3.1829  -3.1819  -2.7011  -2.6975
    -2.6750  -2.6717  -2.6634  -2.6590  -2.6460  -2.6435  -2.6347  -2.6326
    -2.6196  -2.6146  -0.6047  -0.5794  -0.5361  -0.5035  -0.4084  -0.3652
    -0.3022  -0.2272  -0.2146  -0.1671  -0.1034  -0.0745   0.0577   0.0649
     0.2074   0.2132   0.2956   0.3271   0.3742   0.3994   0.4132   0.4548
     0.4989   0.5147   0.5557   0.5675   0.7026   0.7115   0.7634   0.7982
     0.8375   0.8401   0.9056   0.9067   0.9370   0.9388   1.0229   1.0355
     1.0631   1.0649   1.1308   1.1391   1.1526   1.1671   1.2416   1.2564
     1.3056   1.3087   1.3378   1.3542   1.3841   1.4021   1.4322   1.4563
     1.4876   1.4901   1.4991   1.5065   1.5410   1.5556   1.5726   1.5738
     1.5996   1.6205   1.6614   1.6712   1.7137   1.7308   1.7969   1.8128
     1.8417   1.8463   1.8808   1.8995

          k =-0.1250 0.3737-0.3665 (297766 PWs)   bands (ev):

   -17.7630 -17.7619 -17.4775 -17.4729 -17.4387 -17.4344 -17.3651 -17.3616
   -15.6235 -15.6222 -14.1182 -14.1171 -14.1104 -14.1095 -14.0972 -14.0959
   -14.0922 -14.0916 -14.0901 -14.0878 -14.0866 -14.0854 -14.0754 -14.0747
   -14.0743 -14.0739 -14.0731 -14.0731 -14.0729 -14.0716 -14.0674 -14.0670
   -14.0667 -14.0662 -14.0603 -14.0590 -14.0530 -14.0528 -14.0522 -14.0516
   -14.0509 -14.0505 -14.0503 -14.0494 -14.0485 -14.0479 -14.0379 -14.0372
   -14.0362 -14.0354 -10.4243 -10.4215 -10.3863 -10.3839 -10.3497 -10.3478
    -9.6203  -9.6185  -9.4584  -9.4253  -9.3545  -9.3243  -9.3073  -9.2909
    -9.2456  -9.2406  -9.0698  -9.0630  -9.0495  -9.0348  -9.0181  -9.0153
    -8.9908  -8.9777  -8.9532  -8.9361  -8.9086  -8.8882  -8.8683  -8.8504
    -8.8126  -8.8062  -7.6085  -7.6076  -7.0335  -7.0313  -6.9186  -6.9125
    -6.8786  -6.8749  -6.8411  -6.8386  -6.8210  -6.8193  -6.8080  -6.8052
    -6.7691  -6.7654  -5.4937  -5.3290  -5.3086  -5.2798  -5.2688  -5.1367
    -5.0699  -4.9192  -4.8928  -4.7950  -4.7669  -4.7567  -4.7279  -4.7155
    -4.6846  -4.6573  -3.7409  -3.7390  -3.1829  -3.1819  -2.7017  -2.6973
    -2.6750  -2.6719  -2.6619  -2.6592  -2.6463  -2.6436  -2.6350  -2.6329
    -2.6193  -2.6144  -0.6208  -0.5890  -0.5353  -0.4964  -0.4052  -0.3548
    -0.3007  -0.2323  -0.2102  -0.1439  -0.1007  -0.0725   0.0603   0.0662
     0.2042   0.2079   0.2927   0.3289   0.3771   0.3825   0.4018   0.4414
     0.5057   0.5111   0.5673   0.5698   0.7075   0.7120   0.7631   0.7830
     0.8214   0.8473   0.9012   0.9112   0.9197   0.9318   1.0207   1.0239
     1.0615   1.0712   1.1296   1.1408   1.1824   1.1982   1.2444   1.2576
     1.3025   1.3232   1.3412   1.3438   1.3890   1.3940   1.4489   1.4544
     1.4708   1.4921   1.5024   1.5108   1.5339   1.5421   1.5649   1.5734
     1.6177   1.6193   1.6678   1.6796   1.7292   1.7558   1.7745   1.7808
     1.7949   1.8129   1.9151   1.9420

          k = 0.1250-0.3737-0.3665 (297766 PWs)   bands (ev):

   -17.7630 -17.7619 -17.4775 -17.4729 -17.4387 -17.4344 -17.3651 -17.3616
   -15.6235 -15.6222 -14.1182 -14.1171 -14.1104 -14.1095 -14.0972 -14.0959
   -14.0922 -14.0916 -14.0901 -14.0879 -14.0865 -14.0854 -14.0754 -14.0747
   -14.0743 -14.0739 -14.0731 -14.0731 -14.0729 -14.0716 -14.0674 -14.0670
   -14.0667 -14.0662 -14.0603 -14.0590 -14.0530 -14.0528 -14.0522 -14.0516
   -14.0509 -14.0505 -14.0503 -14.0494 -14.0485 -14.0479 -14.0379 -14.0372
   -14.0362 -14.0354 -10.4243 -10.4215 -10.3864 -10.3839 -10.3497 -10.3478
    -9.6203  -9.6185  -9.4595  -9.4233  -9.3548  -9.3251  -9.3076  -9.2902
    -9.2454  -9.2410  -9.0716  -9.0595  -9.0488  -9.0343  -9.0197  -9.0163
    -8.9897  -8.9799  -8.9531  -8.9347  -8.9094  -8.8878  -8.8688  -8.8488
    -8.8146  -8.8051  -7.6085  -7.6077  -7.0335  -7.0313  -6.9185  -6.9125
    -6.8786  -6.8749  -6.8410  -6.8387  -6.8209  -6.8193  -6.8080  -6.8052
    -6.7691  -6.7654  -5.4937  -5.3312  -5.3065  -5.2798  -5.2684  -5.1370
    -5.0695  -4.9222  -4.8903  -4.7951  -4.7667  -4.7569  -4.7280  -4.7150
    -4.6841  -4.6580  -3.7409  -3.7391  -3.1829  -3.1820  -2.6997  -2.6986
    -2.6752  -2.6716  -2.6634  -2.6597  -2.6474  -2.6425  -2.6350  -2.6319
    -2.6189  -2.6148  -0.6216  -0.5861  -0.5377  -0.4952  -0.4072  -0.3532
    -0.3005  -0.2358  -0.2069  -0.1444  -0.1014  -0.0730   0.0605   0.0654
     0.2046   0.2060   0.2971   0.3300   0.3738   0.3839   0.4037   0.4401
     0.5043   0.5123   0.5680   0.5690   0.7040   0.7147   0.7626   0.7823
     0.8234   0.8516   0.8965   0.9110   0.9168   0.9346   1.0229   1.0259
     1.0618   1.0676   1.1299   1.1404   1.1790   1.1998   1.2430   1.2560
     1.3109   1.3187   1.3399   1.3442   1.3865   1.3944   1.4492   1.4559
     1.4736   1.4930   1.4992   1.5107   1.5358   1.5412   1.5650   1.5746
     1.6165   1.6197   1.6680   1.6805   1.7294   1.7507   1.7783   1.7811
     1.7938   1.8129   1.9153   1.9424

          k =-0.3750-0.1246 0.1222 (297756 PWs)   bands (ev):

   -17.7630 -17.7619 -17.4775 -17.4729 -17.4387 -17.4344 -17.3651 -17.3616
   -15.6235 -15.6222 -14.1203 -14.1193 -14.1082 -14.1073 -14.0972 -14.0960
   -14.0941 -14.0933 -14.0899 -14.0884 -14.0847 -14.0835 -14.0754 -14.0744
   -14.0743 -14.0741 -14.0732 -14.0730 -14.0726 -14.0716 -14.0674 -14.0670
   -14.0667 -14.0662 -14.0603 -14.0590 -14.0530 -14.0528 -14.0521 -14.0517
   -14.0509 -14.0505 -14.0503 -14.0494 -14.0485 -14.0478 -14.0379 -14.0372
   -14.0362 -14.0354 -10.4243 -10.4215 -10.3866 -10.3842 -10.3499 -10.3480
    -9.6143  -9.6134  -9.4936  -9.4493  -9.3512  -9.3019  -9.2894  -9.2425
    -9.2059  -9.1993  -9.1363  -9.1303  -9.0810  -9.0647  -8.9965  -8.9919
    -8.9808  -8.9788  -8.9648  -8.9596  -8.8823  -8.8721  -8.8683  -8.8296
    -8.8205  -8.8082  -7.6090  -7.6076  -7.0339  -7.0318  -6.9208  -6.9147
    -6.8785  -6.8756  -6.8412  -6.8394  -6.8244  -6.8194  -6.8020  -6.7994
    -6.7698  -6.7658  -5.6095  -5.4307  -5.2804  -5.2794  -5.1879  -5.1560
    -5.0205  -4.9837  -4.7983  -4.7816  -4.7573  -4.7494  -4.7187  -4.7018
    -4.6768  -4.5547  -3.7410  -3.7391  -3.1830  -3.1819  -2.7051  -2.7009
    -2.6762  -2.6705  -2.6579  -2.6526  -2.6453  -2.6411  -2.6360  -2.6354
    -2.6248  -2.6202  -0.7816  -0.7694  -0.6432  -0.6206  -0.5987  -0.5652
    -0.4359  -0.3989  -0.2833  -0.2391  -0.1730  -0.0940   0.0368   0.1263
     0.2219   0.3441   0.3987   0.4294   0.4325   0.4858   0.4881   0.5378
     0.5720   0.5931   0.6481   0.6779   0.7330   0.7778   0.8339   0.8745
     0.8818   0.9560   0.9785   0.9977   1.0093   1.0644   1.0998   1.1022
     1.1340   1.1399   1.1614   1.1639   1.1773   1.1971   1.2341   1.2494
     1.2807   1.3151   1.3245   1.3318   1.3516   1.3649   1.3801   1.3882
     1.3969   1.4035   1.4872   1.4928   1.5343   1.5363   1.5855   1.5875
     1.5951   1.6176   1.6635   1.7066   1.7524   1.8000   1.8464   1.8495
     1.8656   1.9045   1.9872   2.0538

          k =-0.3750 0.1246-0.1222 (297756 PWs)   bands (ev):

   -17.7630 -17.7619 -17.4775 -17.4729 -17.4387 -17.4344 -17.3651 -17.3616
   -15.6235 -15.6222 -14.1203 -14.1193 -14.1082 -14.1073 -14.0972 -14.0960
   -14.0941 -14.0933 -14.0899 -14.0884 -14.0847 -14.0835 -14.0754 -14.0744
   -14.0743 -14.0741 -14.0732 -14.0730 -14.0726 -14.0717 -14.0674 -14.0670
   -14.0667 -14.0662 -14.0603 -14.0590 -14.0530 -14.0528 -14.0521 -14.0517
   -14.0509 -14.0505 -14.0503 -14.0494 -14.0485 -14.0478 -14.0379 -14.0372
   -14.0362 -14.0354 -10.4246 -10.4216 -10.3867 -10.3841 -10.3498 -10.3475
    -9.6155  -9.6132  -9.4988  -9.4420  -9.3418  -9.3143  -9.2871  -9.2408
    -9.2132  -9.1950  -9.1360  -9.1298  -9.0917  -9.0538  -8.9962  -8.9912
    -8.9821  -8.9730  -8.9670  -8.9582  -8.8867  -8.8777  -8.8683  -8.8308
    -8.8205  -8.8020  -7.6093  -7.6073  -7.0340  -7.0318  -6.9209  -6.9146
    -6.8784  -6.8756  -6.8408  -6.8399  -6.8228  -6.8211  -6.8020  -6.7994
    -6.7697  -6.7659  -5.6099  -5.4296  -5.2803  -5.2795  -5.1898  -5.1554
    -5.0192  -4.9851  -4.8000  -4.7831  -4.7616  -4.7469  -4.7161  -4.7014
    -4.6723  -4.5564  -3.7410  -3.7391  -3.1831  -3.1818  -2.7057  -2.7007
    -2.6759  -2.6709  -2.6577  -2.6514  -2.6460  -2.6406  -2.6381  -2.6345
    -2.6236  -2.6207  -0.7878  -0.7642  -0.6411  -0.6399  -0.6044  -0.5539
    -0.4461  -0.3948  -0.2688  -0.2309  -0.1620  -0.0816   0.0335   0.1303
     0.2231   0.3144   0.4070   0.4159   0.4379   0.4720   0.4936   0.5292
     0.5787   0.5958   0.6448   0.6886   0.7346   0.7664   0.8170   0.8356
     0.9145   0.9338   0.9820   1.0057   1.0358   1.0419   1.0906   1.1241
     1.1281   1.1357   1.1613   1.1709   1.1983   1.1997   1.2454   1.2554
     1.2796   1.3100   1.3259   1.3403   1.3529   1.3670   1.3762   1.3873
     1.4013   1.4099   1.4914   1.5138   1.5162   1.5423   1.5470   1.5677
     1.6020   1.6354   1.6768   1.6901   1.7404   1.8058   1.8451   1.8495
     1.8594   1.9182   1.9731   2.0724

          k = 0.3750-0.1246-0.1222 (297756 PWs)   bands (ev):

   -17.7630 -17.7619 -17.4775 -17.4729 -17.4387 -17.4344 -17.3651 -17.3616
   -15.6235 -15.6222 -14.1203 -14.1193 -14.1082 -14.1073 -14.0972 -14.0960
   -14.0941 -14.0933 -14.0899 -14.0884 -14.0847 -14.0835 -14.0754 -14.0744
   -14.0743 -14.0741 -14.0732 -14.0730 -14.0726 -14.0717 -14.0674 -14.0670
   -14.0667 -14.0662 -14.0603 -14.0590 -14.0530 -14.0528 -14.0521 -14.0517
   -14.0509 -14.0505 -14.0503 -14.0494 -14.0485 -14.0478 -14.0379 -14.0372
   -14.0362 -14.0354 -10.4246 -10.4216 -10.3867 -10.3841 -10.3498 -10.3475
    -9.6154  -9.6132  -9.4987  -9.4422  -9.3418  -9.3138  -9.2867  -9.2417
    -9.2144  -9.1936  -9.1353  -9.1311  -9.0907  -9.0532  -8.9962  -8.9930
    -8.9793  -8.9759  -8.9703  -8.9539  -8.8848  -8.8794  -8.8685  -8.8305
    -8.8207  -8.8020  -7.6093  -7.6073  -7.0340  -7.0318  -6.9209  -6.9146
    -6.8785  -6.8756  -6.8406  -6.8400  -6.8227  -6.8211  -6.8020  -6.7994
    -6.7698  -6.7659  -5.6099  -5.4296  -5.2803  -5.2795  -5.1900  -5.1552
    -5.0195  -4.9848  -4.7997  -4.7831  -4.7614  -4.7470  -4.7163  -4.7013
    -4.6726  -4.5563  -3.7410  -3.7391  -3.1831  -3.1818  -2.7051  -2.7006
    -2.6766  -2.6702  -2.6576  -2.6537  -2.6469  -2.6416  -2.6350  -2.6338
    -2.6235  -2.6211  -0.7874  -0.7639  -0.6436  -0.6398  -0.6025  -0.5538
    -0.4459  -0.3948  -0.2694  -0.2304  -0.1632  -0.0812   0.0333   0.1305
     0.2238   0.3146   0.4078   0.4147   0.4391   0.4707   0.4930   0.5310
     0.5793   0.5951   0.6434   0.6869   0.7359   0.7678   0.8176   0.8336
     0.9180   0.9340   0.9801   1.0059   1.0367   1.0408   1.0921   1.1251
     1.1276   1.1360   1.1594   1.1735   1.1968   1.1990   1.2465   1.2544
     1.2783   1.3060   1.3265   1.3408   1.3547   1.3697   1.3739   1.3876
     1.3994   1.4113   1.4917   1.5141   1.5184   1.5357   1.5452   1.5722
     1.6023   1.6373   1.6770   1.6902   1.7367   1.8064   1.8446   1.8528
     1.8598   1.9186   1.9710   2.0733

          k =-0.3750-0.1246 0.3665 (297852 PWs)   bands (ev):

   -17.7630 -17.7619 -17.4775 -17.4729 -17.4387 -17.4344 -17.3651 -17.3616
   -15.6235 -15.6222 -14.1182 -14.1171 -14.1103 -14.1095 -14.0969 -14.0958
   -14.0923 -14.0913 -14.0901 -14.0880 -14.0871 -14.0857 -14.0754 -14.0744
   -14.0744 -14.0741 -14.0732 -14.0730 -14.0726 -14.0716 -14.0674 -14.0670
   -14.0667 -14.0662 -14.0603 -14.0590 -14.0530 -14.0528 -14.0521 -14.0516
   -14.0509 -14.0505 -14.0503 -14.0494 -14.0485 -14.0479 -14.0379 -14.0372
   -14.0362 -14.0354 -10.4241 -10.4213 -10.3867 -10.3843 -10.3499 -10.3481
    -9.6117  -9.6116  -9.4617  -9.4175  -9.3984  -9.3509  -9.2993  -9.2684
    -9.2450  -9.2281  -9.0648  -9.0603  -9.0344  -9.0314  -9.0098  -9.0087
    -9.0002  -8.9909  -8.9454  -8.9431  -8.9119  -8.8976  -8.8604  -8.8424
    -8.8194  -8.8139  -7.6090  -7.6084  -7.0340  -7.0318  -6.9187  -6.9127
    -6.8784  -6.8758  -6.8408  -6.8391  -6.8204  -6.8169  -6.8076  -6.8047
    -6.7690  -6.7652  -5.4902  -5.3222  -5.3010  -5.2795  -5.2729  -5.1289
    -5.0775  -4.9185  -4.9062  -4.7993  -4.7654  -4.7590  -4.7312  -4.7137
    -4.6859  -4.6592  -3.7411  -3.7393  -3.1830  -3.1820  -2.7010  -2.6987
    -2.6802  -2.6764  -2.6631  -2.6573  -2.6480  -2.6413  -2.6313  -2.6281
    -2.6197  -2.6149  -0.5921  -0.5573  -0.5165  -0.4981  -0.3617  -0.3320
    -0.3145  -0.2584  -0.2167  -0.2033  -0.1135  -0.1014   0.0318   0.0426
     0.2310   0.2542   0.3135   0.3150   0.3560   0.3848   0.4187   0.4487
     0.4735   0.5187   0.5789   0.5918   0.7164   0.7210   0.7796   0.7957
     0.8463   0.8510   0.9236   0.9331   0.9650   0.9731   0.9960   1.0340
     1.0519   1.0729   1.0805   1.1115   1.1488   1.1684   1.2325   1.2820
     1.3063   1.3258   1.3594   1.3655   1.3693   1.3864   1.4045   1.4082
     1.4611   1.4744   1.4939   1.5040   1.5152   1.5226   1.5750   1.5768
     1.5886   1.6130   1.6514   1.6758   1.7382   1.7402   1.7831   1.7908
     1.8333   1.8450   1.9090   1.9292

          k =-0.3750 0.1246-0.3665 (297852 PWs)   bands (ev):

   -17.7630 -17.7619 -17.4775 -17.4729 -17.4387 -17.4344 -17.3651 -17.3616
   -15.6235 -15.6222 -14.1182 -14.1171 -14.1103 -14.1095 -14.0969 -14.0958
   -14.0923 -14.0913 -14.0901 -14.0880 -14.0871 -14.0857 -14.0754 -14.0744
   -14.0744 -14.0741 -14.0732 -14.0730 -14.0726 -14.0717 -14.0674 -14.0670
   -14.0667 -14.0662 -14.0603 -14.0590 -14.0530 -14.0528 -14.0521 -14.0516
   -14.0509 -14.0505 -14.0503 -14.0494 -14.0485 -14.0479 -14.0379 -14.0372
   -14.0362 -14.0354 -10.4244 -10.4215 -10.3867 -10.3842 -10.3496 -10.3477
    -9.6123  -9.6115  -9.4671  -9.4085  -9.4032  -9.3471  -9.2896  -9.2781
    -9.2393  -9.2361  -9.0656  -9.0604  -9.0407  -9.0250  -9.0117  -9.0082
    -8.9979  -8.9873  -8.9546  -8.9341  -8.9140  -8.8931  -8.8688  -8.8489
    -8.8155  -8.8082  -7.6091  -7.6082  -7.0340  -7.0318  -6.9187  -6.9127
    -6.8788  -6.8754  -6.8409  -6.8391  -6.8194  -6.8179  -6.8076  -6.8048
    -6.7689  -6.7652  -5.4900  -5.3205  -5.3007  -5.2803  -5.2739  -5.1289
    -5.0795  -4.9173  -4.9090  -4.7964  -4.7670  -4.7573  -4.7297  -4.7156
    -4.6838  -4.6607  -3.7411  -3.7392  -3.1830  -3.1820  -2.7014  -2.6986
    -2.6800  -2.6762  -2.6631  -2.6566  -2.6476  -2.6424  -2.6310  -2.6290
    -2.6190  -2.6149  -0.6040  -0.5731  -0.5088  -0.5014  -0.3542  -0.3244
    -0.3052  -0.2617  -0.2153  -0.1954  -0.1010  -0.0920   0.0287   0.0454
     0.2203   0.2593   0.3051   0.3191   0.3519   0.3542   0.4265   0.4364
     0.4957   0.5013   0.5869   0.5976   0.7121   0.7193   0.7897   0.7958
     0.8417   0.8529   0.9080   0.9102   0.9358   0.9561   1.0319   1.0389
     1.0508   1.0549   1.0791   1.1070   1.1912   1.2119   1.2410   1.2652
     1.3164   1.3292   1.3414   1.3554   1.3790   1.3881   1.4114   1.4142
     1.4518   1.4697   1.4878   1.4961   1.5342   1.5405   1.5675   1.5712
     1.5994   1.6038   1.6610   1.6852   1.7336   1.7372   1.7626   1.7717
     1.8164   1.8326   1.9317   1.9524

          k = 0.3750-0.1246-0.3665 (297852 PWs)   bands (ev):

   -17.7630 -17.7619 -17.4775 -17.4729 -17.4387 -17.4344 -17.3651 -17.3616
   -15.6235 -15.6222 -14.1182 -14.1171 -14.1103 -14.1095 -14.0969 -14.0958
   -14.0923 -14.0913 -14.0900 -14.0880 -14.0871 -14.0857 -14.0754 -14.0744
   -14.0744 -14.0741 -14.0732 -14.0730 -14.0726 -14.0717 -14.0674 -14.0670
   -14.0667 -14.0662 -14.0603 -14.0590 -14.0530 -14.0528 -14.0521 -14.0516
   -14.0509 -14.0505 -14.0503 -14.0494 -14.0485 -14.0479 -14.0379 -14.0372
   -14.0362 -14.0354 -10.4244 -10.4215 -10.3867 -10.3842 -10.3496 -10.3477
    -9.6121  -9.6116  -9.4670  -9.4105  -9.4018  -9.3461  -9.2891  -9.2790
    -9.2388  -9.2370  -9.0651  -9.0597  -9.0395  -9.0259  -9.0116  -9.0093
    -8.9965  -8.9898  -8.9562  -8.9321  -8.9123  -8.8939  -8.8696  -8.8485
    -8.8156  -8.8082  -7.6091  -7.6082  -7.0340  -7.0318  -6.9187  -6.9126
    -6.8788  -6.8754  -6.8408  -6.8392  -6.8194  -6.8178  -6.8076  -6.8048
    -6.7689  -6.7652  -5.4900  -5.3213  -5.2999  -5.2803  -5.2738  -5.1292
    -5.0796  -4.9176  -4.9078  -4.7966  -4.7669  -4.7579  -4.7301  -4.7151
    -4.6841  -4.6604  -3.7411  -3.7392  -3.1830  -3.1820  -2.7008  -2.6982
    -2.6805  -2.6766  -2.6629  -2.6580  -2.6486  -2.6412  -2.6307  -2.6280
    -2.6192  -2.6150  -0.6060  -0.5701  -0.5115  -0.4990  -0.3552  -0.3226
    -0.3042  -0.2621  -0.2147  -0.1974  -0.1050  -0.0914   0.0281   0.0464
     0.2234   0.2616   0.3029   0.3184   0.3528   0.3564   0.4250   0.4354
     0.4976   0.5001   0.5869   0.5966   0.7116   0.7211   0.7883   0.7955
     0.8389   0.8552   0.9071   0.9128   0.9338   0.9585   1.0336   1.0400
     1.0504   1.0560   1.0804   1.1012   1.1928   1.2127   1.2388   1.2665
     1.3164   1.3247   1.3392   1.3551   1.3840   1.3863   1.4126   1.4150
     1.4513   1.4712   1.4877   1.4971   1.5292   1.5425   1.5665   1.5728
     1.5993   1.6046   1.6611   1.6848   1.7307   1.7358   1.7606   1.7804
     1.8215   1.8258   1.9303   1.9539

          k =-0.3750-0.3737 0.1222 (297807 PWs)   bands (ev):

   -17.7630 -17.7619 -17.4775 -17.4729 -17.4387 -17.4344 -17.3651 -17.3616
   -15.6235 -15.6222 -14.1203 -14.1192 -14.1080 -14.1072 -14.0964 -14.0952
   -14.0942 -14.0933 -14.0892 -14.0882 -14.0849 -14.0839 -14.0754 -14.0749
   -14.0744 -14.0742 -14.0736 -14.0734 -14.0729 -14.0723 -14.0674 -14.0671
   -14.0667 -14.0662 -14.0603 -14.0590 -14.0530 -14.0528 -14.0521 -14.0517
   -14.0509 -14.0505 -14.0503 -14.0494 -14.0485 -14.0479 -14.0379 -14.0372
   -14.0362 -14.0354 -10.4245 -10.4214 -10.3866 -10.3836 -10.3503 -10.3479
[...]
    -4.5823  -4.5780  -3.6573  -3.6511  -3.1219  -3.1162  -2.6242  -2.6169
    -2.5955  -2.5949  -2.5862  -2.5842  -2.5727  -2.5712  -2.5382  -2.5267
    -2.5229  -2.5207  -0.3272  -0.3235  -0.3058  -0.2694  -0.2007  -0.1779
    -0.1386  -0.1247  -0.1006  -0.0541  -0.0348  -0.0066   0.1316   0.1584
     0.2202   0.2766   0.3275   0.3373   0.3545   0.3723   0.4086   0.4406
     0.4925   0.5106   0.5463   0.5492   0.7441   0.7952   0.8245   0.8292
     0.8484   0.8727   0.9124   0.9278   0.9664   0.9692   1.0002   1.0269
     1.0541   1.0748   1.1023   1.1162   1.1840   1.1893   1.2278   1.2496
     1.2794   1.2888   1.3242   1.3451   1.4026   1.4056   1.4191   1.4421
     1.4784   1.4800   1.5416   1.5459   1.5639   1.5794   1.6141   1.6276
     1.6776   1.6936   1.7272   1.7563   1.8131   1.8212   1.8454   1.8548
     1.8873   1.9090   1.9687   1.9916

          k = 0.3785-0.3771-0.3627 (297813 PWs)   bands (ev):

   -17.6934 -17.6852 -17.3330 -17.3298 -17.3242 -17.3088 -17.2404 -17.2314
   -15.5577 -15.5510 -14.0750 -14.0738 -14.0703 -14.0702 -14.0606 -14.0594
   -14.0573 -14.0559 -14.0544 -14.0525 -14.0524 -14.0512 -14.0388 -14.0376
   -14.0372 -14.0371 -14.0367 -14.0360 -14.0356 -14.0350 -14.0331 -14.0310
   -14.0309 -14.0299 -14.0212 -14.0205 -14.0204 -14.0193 -14.0186 -14.0184
   -14.0182 -14.0171 -14.0167 -14.0151 -14.0150 -14.0139 -14.0004 -13.9994
   -13.9993 -13.9985 -10.2869 -10.2829 -10.2655 -10.2599 -10.2541 -10.2377
    -9.5453  -9.5430  -9.3756  -9.3308  -9.3137  -9.2851  -9.2590  -9.2576
    -9.2163  -9.2062  -9.0287  -9.0195  -9.0048  -8.9930  -8.9444  -8.9430
    -8.9332  -8.9263  -8.8848  -8.8688  -8.8514  -8.8424  -8.8163  -8.7959
    -8.7806  -8.7703  -7.5420  -7.5323  -6.9593  -6.9584  -6.7789  -6.7677
    -6.7556  -6.7540  -6.7530  -6.7510  -6.7333  -6.7307  -6.7211  -6.7137
    -6.6618  -6.6545  -5.3204  -5.2259  -5.2160  -5.1742  -5.1520  -5.1204
    -5.0085  -4.9822  -4.9658  -4.8267  -4.6298  -4.6248  -4.6000  -4.5854
    -4.5823  -4.5780  -3.6573  -3.6511  -3.1219  -3.1162  -2.6242  -2.6169
    -2.5960  -2.5944  -2.5859  -2.5839  -2.5736  -2.5710  -2.5380  -2.5263
    -2.5237  -2.5204  -0.3248  -0.3226  -0.3047  -0.2710  -0.2013  -0.1757
    -0.1431  -0.1230  -0.1018  -0.0545  -0.0381  -0.0098   0.1334   0.1565
     0.2257   0.2780   0.3320   0.3382   0.3518   0.3751   0.4076   0.4385
     0.4912   0.5116   0.5456   0.5482   0.7437   0.7944   0.8268   0.8300
     0.8477   0.8751   0.9092   0.9248   0.9650   0.9675   1.0032   1.0295
     1.0575   1.0742   1.1006   1.1161   1.1800   1.1950   1.2313   1.2464
     1.2759   1.2889   1.3259   1.3419   1.4031   1.4065   1.4207   1.4404
     1.4783   1.4793   1.5412   1.5446   1.5629   1.5796   1.6159   1.6279
     1.6783   1.6957   1.7253   1.7556   1.8129   1.8201   1.8468   1.8553
     1.8890   1.9075   1.9693   1.9913

     highest occupied level (ev):     2.2490

!    total energy              =  -16545.24180638 Ry
     Harris-Foulkes estimate   =  -16545.24180639 Ry
     estimated scf accuracy    <          1.2E-09 Ry

     total all-electron energy =   -677464.508676 Ry

     The total energy is the sum of the following terms:

     one-electron contribution =    -824.44883863 Ry
     hartree contribution      =     604.39997133 Ry
     xc contribution           =    -765.78583357 Ry
     ewald contribution        =   -1188.60792312 Ry
     DFT-D3 Dispersion         =      -0.65429257 Ry
     one-center paw contrib.   =  -14370.14488982 Ry

     convergence has been achieved in   9 iterations

     Forces acting on atoms (cartesian axes, Ry/au):

     atom    1 type  1   force =    -0.00022801    0.00025904    0.00067962
     atom    2 type  1   force =    -0.00051454   -0.00004865    0.00092283
     atom    3 type  1   force =    -0.00026955    0.00044649    0.00000449
     atom    4 type  1   force =     0.00005911    0.00058003   -0.00008649
     atom    5 type  1   force =     0.00021434    0.00077984    0.00000498
     atom    6 type  1   force =    -0.00027106    0.00050301    0.00014488
     atom    7 type  1   force =    -0.00046518    0.00031997    0.00046545
     atom    8 type  1   force =    -0.00024501    0.00017359    0.00037012
     atom    9 type  2   force =     0.00017493   -0.00062634    0.00014487
     atom   10 type  2   force =     0.00074835    0.00009515    0.00128499
     atom   11 type  2   force =     0.00035101   -0.00083092   -0.00118216
     atom   12 type  2   force =     0.00061734   -0.00082823   -0.00029578
     atom   13 type  2   force =     0.00081543    0.00043543   -0.00085717
     atom   14 type  2   force =     0.00040414   -0.00051360   -0.00107769
     atom   15 type  2   force =     0.00039153    0.00043048    0.00023742
     atom   16 type  2   force =    -0.00059172    0.00000715   -0.00030504
     atom   17 type  2   force =     0.00020815   -0.00032472   -0.00011747
     atom   18 type  2   force =     0.00024086    0.00015207    0.00021441
     atom   19 type  2   force =    -0.00071198    0.00018836   -0.00000138
     atom   20 type  2   force =    -0.00079339   -0.00037911   -0.00000872
     atom   21 type  2   force =     0.00012058    0.00028600    0.00031915
     atom   22 type  2   force =    -0.00068449   -0.00034124    0.00002410
     atom   23 type  2   force =    -0.00076148   -0.00022523   -0.00020843
     atom   24 type  2   force =     0.00056290    0.00026851    0.00032719
     atom   25 type  2   force =    -0.00071599    0.00009932   -0.00036055
     atom   26 type  2   force =     0.00045409   -0.00023714   -0.00022154
     atom   27 type  2   force =     0.00056814   -0.00076122   -0.00011338
     atom   28 type  2   force =     0.00100727   -0.00004674   -0.00099827
     atom   29 type  2   force =     0.00059296   -0.00029987   -0.00057877
     atom   30 type  2   force =     0.00022635   -0.00069500    0.00006816
     atom   31 type  2   force =     0.00082089    0.00005797    0.00126331
     atom   32 type  2   force =     0.00031546   -0.00068585   -0.00064248
     atom   33 type  3   force =    -0.00011959    0.00218284    0.00003145
     atom   34 type  3   force =    -0.00025077    0.00025899    0.00006507
     atom   35 type  3   force =     0.00005503    0.00071848   -0.00132803
     atom   36 type  3   force =    -0.00116646    0.00007020    0.00019952
     atom   37 type  3   force =    -0.00080462    0.00014789   -0.00019901
     atom   38 type  3   force =    -0.00071412    0.00092431   -0.00015544
     atom   39 type  3   force =    -0.00070916    0.00100364   -0.00063761
     atom   40 type  3   force =    -0.00106599   -0.00002555    0.00007615
     atom   41 type  4   force =     0.00219593   -0.00123394    0.00002528
     atom   42 type  4   force =     0.00024391   -0.00393372   -0.00003492
     atom   43 type  4   force =    -0.00044617    0.00110500    0.00104654
     atom   44 type  4   force =    -0.00003068    0.00034342    0.00048787
     atom   45 type  4   force =     0.00194833   -0.00058916   -0.00053016
     atom   46 type  4   force =    -0.00011654    0.00080013   -0.00037090
     atom   47 type  4   force =     0.00015523    0.00003580    0.00026162
     atom   48 type  4   force =     0.00097740   -0.00185228   -0.00042565
     atom   49 type  4   force =     0.00189078    0.00033457    0.00006179
     atom   50 type  4   force =    -0.00000997   -0.00105348    0.00002318
     atom   51 type  5   force =    -0.00093878    0.00045426   -0.00013562
     atom   52 type  5   force =    -0.00062615    0.00197353    0.00001968
     atom   53 type  5   force =    -0.00028474   -0.00079016    0.00001918
     atom   54 type  5   force =     0.00006370   -0.00029366   -0.00006329
     atom   55 type  5   force =    -0.00006200    0.00069136    0.00014009
     atom   56 type  5   force =    -0.00018278    0.00068743    0.00089160
     atom   57 type  5   force =     0.00032135    0.00025365   -0.00045436
     atom   58 type  5   force =    -0.00021825   -0.00049010   -0.00038516
     atom   59 type  5   force =     0.00078538    0.00037121    0.00000778
     atom   60 type  5   force =     0.00053885   -0.00062124   -0.00009319
     atom   61 type  5   force =    -0.00001159   -0.00104484   -0.00130564
     atom   62 type  5   force =    -0.00064979    0.00119623    0.00024260
     atom   63 type  5   force =    -0.00104163   -0.00036090   -0.00012434
     atom   64 type  5   force =     0.00033010    0.00056591    0.00042537
     atom   65 type  5   force =    -0.00053073   -0.00028221   -0.00085082
     atom   66 type  5   force =     0.00040394    0.00061636    0.00005154
     atom   67 type  5   force =    -0.00078170   -0.00098509    0.00140024
     atom   68 type  5   force =     0.00046316   -0.00015194    0.00091849
     atom   69 type  5   force =     0.00053703   -0.00011142   -0.00047912
     atom   70 type  5   force =    -0.00083977    0.00037570    0.00012103
     atom   71 type  5   force =    -0.00075903   -0.00005241    0.00054491
     atom   72 type  5   force =    -0.00060876    0.00007391   -0.00047029
     atom   73 type  5   force =     0.00063039   -0.00000886   -0.00003798
     atom   74 type  5   force =     0.00030883   -0.00032028    0.00117727
     atom   75 type  5   force =     0.00047415   -0.00010448   -0.00085285
     atom   76 type  5   force =     0.00042735   -0.00085408    0.00006734
     atom   77 type  5   force =    -0.00031519   -0.00002522    0.00078493
     atom   78 type  5   force =    -0.00009681    0.00027431   -0.00033828
     atom   79 type  5   force =     0.00014768   -0.00012174    0.00014504
     atom   80 type  5   force =    -0.00026738    0.00060684   -0.00051139
     atom   81 type  5   force =    -0.00180311   -0.00102793   -0.00020076
     atom   82 type  5   force =     0.00007316    0.00147836    0.00007901
     atom   83 type  5   force =    -0.00067015   -0.00106882   -0.00117090
     atom   84 type  5   force =     0.00109574    0.00127506    0.00072578
     atom   85 type  5   force =    -0.00007468   -0.00040967    0.00114943
     atom   86 type  5   force =    -0.00012416    0.00060480   -0.00019379
     atom   87 type  5   force =    -0.00129447    0.00155617    0.00029267
     atom   88 type  5   force =    -0.00074888   -0.00025899    0.00113197
     atom   89 type  5   force =     0.00137330    0.00000398   -0.00057630
     atom   90 type  5   force =     0.00076716   -0.00061560   -0.00057283
     atom   91 type  5   force =     0.00007347   -0.00012931    0.00069216
     atom   92 type  5   force =    -0.00000452    0.00020256   -0.00011631
     atom   93 type  5   force =    -0.00042509    0.00007550    0.00004058
     atom   94 type  5   force =     0.00084164   -0.00058575   -0.00009675
     atom   95 type  5   force =    -0.00020577    0.00011423   -0.00004581
     atom   96 type  5   force =    -0.00076443   -0.00021230   -0.00001033

     Total force =     0.011733     Total SCF correction =     0.000105


     Computing stress (Cartesian axis) and pressure

          total   stress  (Ry/bohr**3)                   (kbar)     P=    0.08
   0.00000047   0.00000951   0.00000001          0.07      1.40      0.00
   0.00000951   0.00000327   0.00000009          1.40      0.48      0.01
   0.00000001   0.00000009  -0.00000209          0.00      0.01     -0.31


     number of scf cycles    =  29
     number of bfgs steps    =  28

     enthalpy old            =  -16545.2416182539 Ry
     enthalpy new            =  -16545.2418063838 Ry

     CASE: enthalpy_new < enthalpy_old

     new trust radius        =       0.0415648161 bohr
     new conv_thr            =       0.0000000019 Ry

     new unit-cell volume =  13303.26645 a.u.^3 (  1971.34067 Ang^3 )
     density =      4.20484 g/cm^3

CELL_PARAMETERS (angstrom)
  12.342414515   0.000000000   0.000000000
   0.000000000  12.393830064   0.000000000
   0.000000000   0.000000000  12.887124309

ATOMIC_POSITIONS (crystal)
Pb       0.001749102  -0.008663733   0.003032918
Pb       0.002418906  -0.007813852   0.501768618
Pb      -0.001673072   0.494451247   0.000502306
Pb      -0.001982116   0.494308210   0.506113950
Pb       0.497658878  -0.005914138   0.006093571
Pb       0.498312448  -0.005395379   0.500379613
Pb       0.502445982   0.491823648   0.002120184
Pb       0.501805269   0.491572577   0.503403728
I        0.248905625   0.073615816   0.007696099
I       -0.060658170   0.239065088  -0.027301545
I       -0.024945639   0.015926847   0.254389951
I        0.248264512   0.075040889   0.501112080
I       -0.062273248   0.239030981   0.531174212
I        0.005403484  -0.020882569   0.754227005
I        0.249285012   0.440652443   0.019195536
I        0.076308413   0.739777998  -0.011626725
I        0.002576788   0.517987621   0.253277601
I        0.249541425   0.441141395   0.487702171
I        0.075723063   0.739997759   0.517450892
I        0.024374431   0.484035316   0.753032448
I        0.749599739  -0.058846095  -0.012192869
I        0.575812706   0.240494005   0.017500068
I        0.524316884  -0.016010362   0.253373199
I        0.749138441  -0.058930344   0.519379133
I        0.576407465   0.239869817   0.488288767
I        0.502262898   0.017909116   0.753479696
I        0.748419258   0.574840193   0.000751275
I        0.437541861   0.739611479   0.031143738
I        0.505064937   0.478988426   0.253681413
I        0.749009295   0.573852015   0.507628206
I        0.439001354   0.739214183   0.472917103
I        0.475163278   0.516128041   0.753787398
C        0.251204983   0.288646041   0.253478784
C        0.284780926   0.279557150   0.754344566
C        0.240885620   0.791813630   0.252678183
C        0.293631171   0.797219970   0.751850302
C        0.793780353   0.296981256   0.251564482
C        0.740715742   0.291523085   0.752800047
C        0.785108608   0.779697465   0.254513344
C        0.751801085   0.788793408   0.753489676
N        0.150789810   0.253449168   0.253439363
N        0.339061132   0.228809691   0.253206725
N        0.195153580   0.198444342   0.754828555
N        0.259860491   0.672633956   0.251677698
N        0.231482855   0.693854219   0.752222871
N        0.731659063   0.193650985   0.252180849
N        0.759767246   0.172378437   0.752081752
N        0.695742165   0.698352977   0.254634134
N        0.651253348   0.753834491   0.753308224
N        0.839609607   0.728803686   0.753130512
H        0.263859298   0.375583231   0.253848898
H        0.129520604   0.173536799   0.253199368
H        0.090106649   0.309627630   0.253751440
H        0.338642126   0.146671565   0.252826081
H        0.412492802   0.266644957   0.253062680
H        0.198414466   0.149911668   0.688732677
H        0.120221858   0.235260701   0.756369614
H        0.200361342   0.149383600   0.820308882
H        0.276003879   0.329975358   0.685206523
H        0.361995454   0.236226611   0.752527404
H        0.278773444   0.328548458   0.824809035
H        0.304003847   0.650679475   0.186346117
H        0.187440845   0.629469803   0.251273427
H        0.303683318   0.649566862   0.316692454
H        0.195103118   0.813348480   0.183061489
H        0.319741466   0.832171430   0.252633094
H        0.195591525   0.812440219   0.322927980
H        0.182131975   0.688654170   0.686711817
H        0.181923028   0.689146448   0.817665779
H        0.283754089   0.628267794   0.752560381
H        0.344040438   0.799329261   0.681953144
H        0.343754627   0.799986669   0.821859692
H        0.235870810   0.864195556   0.751449822
H        0.682430462   0.188382995   0.186649262
H        0.682376680   0.189009942   0.317739771
H        0.784012300   0.127995877   0.252567638
H        0.843849383   0.299095194   0.181493931
H        0.843939077   0.299811755   0.321518108
H        0.736001077   0.364001273   0.251172366
H        0.804014126   0.150495774   0.686853633
H        0.687241326   0.129380921   0.751613980
H        0.803481931   0.149087635   0.817109380
H        0.694713306   0.313270751   0.683354902
H        0.819609535   0.331721633   0.752083001
H        0.695701632   0.312169458   0.823183257
H        0.699381690   0.649863517   0.188666512
H        0.620577654   0.734862351   0.255683933
H        0.701045804   0.649002562   0.319874762
H        0.776270204   0.830268015   0.185498264
H        0.862514851   0.736574621   0.253288761
H        0.778430097   0.828742262   0.324802585
H        0.764311361   0.875748980   0.754085158
H        0.629704058   0.674088719   0.752859470
H        0.590459558   0.809865949   0.753928834
H        0.839389618   0.646602050   0.752572938
H        0.912946183   0.766836487   0.753421959



     Writing output data file 025FA2_vcrelax10.save/
     NEW-OLD atomic charge density approx. for the potential
     extrapolated charge  407.73179, renormalised to  408.00000

     total cpu time spent up to now is   589045.3 secs

     Self-consistent Calculation

     iteration #  1     ecut=   120.00 Ry     beta= 0.70
     Davidson diagonalization with overlap
     ethr =  1.00E-06,  avg # of iterations =  5.0

     total cpu time spent up to now is   592297.5 secs

     total energy              =  -16545.24100008 Ry
     Harris-Foulkes estimate   =  -16545.63209938 Ry
     estimated scf accuracy    <       0.00204630 Ry

     iteration #  2     ecut=   120.00 Ry     beta= 0.70
     Davidson diagonalization with overlap
     ethr =  5.02E-07,  avg # of iterations =  3.0

     total cpu time spent up to now is   594272.2 secs

     total energy              =  -16545.24171912 Ry
     Harris-Foulkes estimate   =  -16545.24216282 Ry
     estimated scf accuracy    <       0.00108453 Ry

     iteration #  3     ecut=   120.00 Ry     beta= 0.70
     Davidson diagonalization with overlap
     ethr =  2.66E-07,  avg # of iterations =  2.0

     total cpu time spent up to now is   595964.7 secs

     total energy              =  -16545.24197632 Ry
     Harris-Foulkes estimate   =  -16545.24193406 Ry
     estimated scf accuracy    <       0.00011619 Ry

     iteration #  4     ecut=   120.00 Ry     beta= 0.70
     Davidson diagonalization with overlap
     ethr =  2.85E-08,  avg # of iterations =  3.0

     total cpu time spent up to now is   597607.5 secs

     total energy              =  -16545.24200548 Ry
     Harris-Foulkes estimate   =  -16545.24199460 Ry
     estimated scf accuracy    <       0.00005439 Ry

     iteration #  5     ecut=   120.00 Ry     beta= 0.70
     Davidson diagonalization with overlap
     ethr =  1.33E-08,  avg # of iterations =  2.0

     total cpu time spent up to now is   599036.7 secs

     total energy              =  -16545.24201242 Ry
     Harris-Foulkes estimate   =  -16545.24201100 Ry
     estimated scf accuracy    <       0.00001594 Ry

     iteration #  6     ecut=   120.00 Ry     beta= 0.70
     Davidson diagonalization with overlap
     ethr =  3.91E-09,  avg # of iterations =  2.0

     total cpu time spent up to now is   600445.5 secs

     total energy              =  -16545.24201321 Ry
     Harris-Foulkes estimate   =  -16545.24201397 Ry
     estimated scf accuracy    <       0.00000147 Ry

     iteration #  7     ecut=   120.00 Ry     beta= 0.70
     Davidson diagonalization with overlap
     ethr =  3.60E-10,  avg # of iterations =  3.0

     total cpu time spent up to now is   602392.3 secs

     total energy              =  -16545.24201363 Ry
     Harris-Foulkes estimate   =  -16545.24201368 Ry
     estimated scf accuracy    <       0.00000007 Ry

     iteration #  8     ecut=   120.00 Ry     beta= 0.70
     Davidson diagonalization with overlap
     ethr =  1.79E-11,  avg # of iterations =  3.0

     total cpu time spent up to now is   604213.2 secs

     total energy              =  -16545.24201365 Ry
     Harris-Foulkes estimate   =  -16545.24201366 Ry
     estimated scf accuracy    <       0.00000002 Ry

     iteration #  9     ecut=   120.00 Ry     beta= 0.70
     Davidson diagonalization with overlap
