
     Program PWSCF v.6.4 starts on 16Jun2020 at 15:53:21 

     This program is part of the open-source Quantum ESPRESSO suite
     for quantum simulation of materials; please cite
         "P. Giannozzi et al., J. Phys.:Condens. Matter 21 395502 (2009);
         "P. Giannozzi et al., J. Phys.:Condens. Matter 29 465901 (2017);
          URL http://www.quantum-espresso.org", 
     in publications or presentations arising from this work. More details at
     http://www.quantum-espresso.org/quote

     Parallel version (MPI), running on    32 processors

     MPI processes distributed on     1 nodes
     R & G space division:  proc/nbgrp/npool/nimage =      32
     Waiting for input...
     Reading input from standard input
     Message from routine read_cards :
     DEPRECATED: no units specified in CELL_PARAMETERS card

     Current dimensions of program PWSCF are:
     Max number of different atomic species (ntypx) = 10
     Max number of k-points (npk) =  40000
     Max angular momentum in pseudopotentials (lmaxx) =  3
               file Pb.pbe-dn-kjpaw_psl.1.0.0.UPF: wavefunction(s)  6S 6P 5D renormalized
               file I.pbe-n-kjpaw_psl.1.0.0.UPF: wavefunction(s)  5S renormalized
               file C.pbe-n-kjpaw_psl.1.0.0.UPF: wavefunction(s)  2S 2P renormalized
               file N.pbe-n-kjpaw_psl.1.0.0.UPF: wavefunction(s)  2S renormalized
               file H.pbe-kjpaw_psl.1.0.0.UPF: wavefunction(s)  1S renormalized

     --------------------------------------------
     Parameters for DFT-D3 Dispersion Correction:
     --------------------------------------------
       Reference C6 values for interpolation: 

         atom   Coordination number   C6
         H          0.912             6.05
         H          0.000            15.18
         C          0.000            98.23
         C          0.987            86.49
         C          1.998            58.72
         C          2.999            51.56
         C          3.984            36.41
         N          0.000            50.54
         N          0.994            44.25
         N          2.014            39.35
         N          2.990            31.16
         I          0.000           703.93
         I          0.997           717.00
         Pb         0.000          1477.63
         Pb         0.938          1266.00
         Pb         1.936          1088.91
         Pb         2.908          1048.37
         Pb         3.910           910.57

       Values used:

         atom   Coordination number  R0_AB[au]  C6      C8
         Pb         4.752            4.041    910.57 144158.56
         Pb         4.816            4.041    910.57 144158.38
         Pb         4.681            4.041    910.58 144158.89
         Pb         4.790            4.041    910.57 144158.44
         Pb         4.677            4.041    910.58 144158.92
         Pb         4.740            4.041    910.57 144158.60
         Pb         4.831            4.041    910.57 144158.35
         Pb         4.703            4.041    910.57 144158.76
         I          1.932            3.532    717.00  65855.99
         I          1.966            3.532    717.00  65856.00
         I          1.813            3.532    717.00  65855.97
         I          1.949            3.532    717.00  65855.99
         I          1.875            3.532    717.00  65855.99
         I          1.896            3.532    717.00  65855.99
         I          1.968            3.532    717.00  65856.00
         I          1.941            3.532    717.00  65855.99
         I          1.855            3.532    717.00  65855.98
         I          1.901            3.532    717.00  65855.99
         I          1.939            3.532    717.00  65855.99
         I          1.959            3.532    717.00  65856.00
         I          1.919            3.532    717.00  65855.99
         I          1.954            3.532    717.00  65856.00
         I          1.921            3.532    717.00  65855.99
         I          1.922            3.532    717.00  65855.99
         I          1.879            3.532    717.00  65855.99
         I          1.933            3.532    717.00  65855.99
         I          1.912            3.532    717.00  65855.99
         I          1.943            3.532    717.00  65855.99
         I          1.847            3.532    717.00  65855.98
         I          1.853            3.532    717.00  65855.98
         I          1.990            3.532    717.00  65856.00
         I          1.919            3.532    717.00  65855.99
         C          3.066            2.750     51.07   1476.97
         C          3.070            2.750     51.05   1476.43
         C          3.069            2.750     51.05   1476.53
         C          3.071            2.750     51.04   1476.29
         C          3.080            2.750     51.00   1474.89
         C          3.072            2.750     51.04   1476.10
         C          3.069            2.750     51.05   1476.54
         C          3.068            2.750     51.06   1476.74
         N          3.103            2.478     31.23    689.03
         N          3.099            2.478     31.24    689.08
         N          3.114            2.478     31.23    688.90
         N          3.104            2.478     31.23    689.01
         N          3.099            2.478     31.23    689.07
         N          3.098            2.478     31.24    689.08
         N          3.108            2.478     31.23    688.96
         N          3.106            2.478     31.23    688.99
         N          3.102            2.478     31.23    689.04
         N          3.104            2.478     31.23    689.01
         N          3.103            2.478     31.23    689.03
         N          3.106            2.478     31.23    688.99
         N          3.102            2.478     31.23    689.04
         N          3.101            2.478     31.23    689.05
         N          3.101            2.478     31.23    689.04
         N          3.107            2.478     31.23    688.98
         H          1.017            2.062      6.17     74.54
         H          1.018            2.062      6.17     74.53
         H          1.018            2.062      6.17     74.53
         H          1.017            2.062      6.17     74.55
         H          1.025            2.062      6.16     74.47
         H          1.023            2.062      6.16     74.48
         H          1.018            2.062      6.17     74.53
         H          1.015            2.062      6.17     74.56
         H          1.025            2.062      6.16     74.46
         H          1.048            2.062      6.14     74.27
         H          1.055            2.062      6.14     74.21
         H          1.061            2.062      6.14     74.17
         H          1.055            2.062      6.14     74.21
         H          1.049            2.062      6.14     74.26
         H          1.034            2.062      6.15     74.38
         H          1.046            2.062      6.15     74.28
         H          1.077            2.062      6.13     74.06
         H          1.042            2.062      6.15     74.31
         H          1.043            2.062      6.15     74.30
         H          1.049            2.062      6.14     74.26
         H          1.032            2.062      6.15     74.40
         H          1.030            2.062      6.16     74.42
         H          1.076            2.062      6.13     74.07
         H          1.060            2.062      6.14     74.18
         H          1.042            2.062      6.15     74.32
         H          1.025            2.062      6.16     74.47
         H          1.026            2.062      6.16     74.46
         H          1.028            2.062      6.16     74.44
         H          1.057            2.062      6.14     74.20
         H          1.056            2.062      6.14     74.21
         H          1.045            2.062      6.15     74.29
         H          1.026            2.062      6.16     74.46
         H          1.041            2.062      6.15     74.33
         H          1.073            2.062      6.13     74.09
         H          1.041            2.062      6.15     74.32
         H          1.085            2.062      6.12     74.01
         H          1.042            2.062      6.15     74.31
         H          1.042            2.062      6.15     74.32
         H          1.048            2.062      6.14     74.27
         H          1.083            2.062      6.12     74.02

         Molecular C6 ( Ry / a.u.^6 ) =   1270618.37


     Subspace diagonalization in iterative solution of the eigenvalue problem:
     a serial algorithm will be used


     Parallelization info
     --------------------
     sticks:   dense  smooth     PW     G-vecs:    dense   smooth      PW
     Min         696     696    180                77840    77840   10190
     Max         697     697    181                77843    77843   10192
     Sum       22303   22303   5763              2490953  2490953  326107



     bravais-lattice index     =            0
     lattice parameter (alat)  =      23.7198  a.u.
     unit-cell volume          =   14025.6070 (a.u.)^3
     number of atoms/cell      =           96
     number of atomic types    =            5
     number of electrons       =       432.00
     number of Kohn-Sham states=          216
     kinetic-energy cutoff     =     120.0000  Ry
     charge density cutoff     =     480.0000  Ry
     convergence threshold     =      1.0E-07
     mixing beta               =       0.7000
     number of iterations used =            8  plain     mixing
     Exchange-correlation      = SLA PW PBX PBC ( 1  4  3  4 0 0)
     nstep                     =          100


     celldm(1)=  23.719842  celldm(2)=   0.000000  celldm(3)=   0.000000
     celldm(4)=   0.000000  celldm(5)=   0.000000  celldm(6)=   0.000000

     crystal axes: (cart. coord. in units of alat)
               a(1) = (   1.010854   0.000000   0.000000 )  
               a(2) = (   0.000000   1.026414   0.000000 )  
               a(3) = (   0.000000   0.000000   1.012921 )  

     reciprocal axes: (cart. coord. in units 2 pi/alat)
               b(1) = (  0.989263  0.000000  0.000000 )  
               b(2) = (  0.000000  0.974266  0.000000 )  
               b(3) = (  0.000000  0.000000  0.987244 )  


     PseudoPot. # 1 for Pb read from file:
     ../Pseudopotential/Pb.pbe-dn-kjpaw_psl.1.0.0.UPF
     MD5 check sum: 684fc8fbce61a260853528575e4d9ab7
     Pseudo is Projector augmented-wave + core cor, Zval = 14.0
     Generated using "atomic" code by A. Dal Corso v.6.3
     Shape of augmentation charge: PSQ
     Using radial grid of 1281 points,  6 beta functions with: 
                l(1) =   0
                l(2) =   0
                l(3) =   1
                l(4) =   1
                l(5) =   2
                l(6) =   2
     Q(r) pseudized with 0 coefficients 


     PseudoPot. # 2 for I  read from file:
     ../Pseudopotential/I.pbe-n-kjpaw_psl.1.0.0.UPF
     MD5 check sum: cd3d296c3308a581e1559a0c8a554cb5
     Pseudo is Projector augmented-wave + core cor, Zval =  7.0
     Generated using "atomic" code by A. Dal Corso v.6.3
     Shape of augmentation charge: PSQ
     Using radial grid of 1247 points,  6 beta functions with: 
                l(1) =   0
                l(2) =   0
                l(3) =   1
                l(4) =   1
                l(5) =   2
                l(6) =   2
     Q(r) pseudized with 0 coefficients 


     PseudoPot. # 3 for C  read from file:
     ../Pseudopotential/C.pbe-n-kjpaw_psl.1.0.0.UPF
     MD5 check sum: 5f16ad9a65e90284d1d834d4ab3b0f7d
     Pseudo is Projector augmented-wave + core cor, Zval =  4.0
     Generated using "atomic" code by A. Dal Corso v.6.3
     Shape of augmentation charge: PSQ
     Using radial grid of 1073 points,  4 beta functions with: 
                l(1) =   0
                l(2) =   0
                l(3) =   1
                l(4) =   1
     Q(r) pseudized with 0 coefficients 


     PseudoPot. # 4 for N  read from file:
     ../Pseudopotential/N.pbe-n-kjpaw_psl.1.0.0.UPF
     MD5 check sum: 14c48229446f9f2d411169a3abcbc3fa
     Pseudo is Projector augmented-wave + core cor, Zval =  5.0
     Generated using "atomic" code by A. Dal Corso v.6.3
     Shape of augmentation charge: PSQ
     Using radial grid of 1085 points,  4 beta functions with: 
                l(1) =   0
                l(2) =   0
                l(3) =   1
                l(4) =   1
     Q(r) pseudized with 0 coefficients 


     PseudoPot. # 5 for H  read from file:
     ../Pseudopotential/H.pbe-kjpaw_psl.1.0.0.UPF
     MD5 check sum: d81a744832360e4a8af0b0b5b123bc2a
     Pseudo is Projector augmented-wave, Zval =  1.0
     Generated using "atomic" code by A. Dal Corso v.6.3MaX
     Shape of augmentation charge: PSQ
     Using radial grid of  929 points,  2 beta functions with: 
                l(1) =   0
                l(2) =   0
     Q(r) pseudized with 0 coefficients 


     atomic species   valence    mass     pseudopotential
        Pb            14.00   207.97600     Pb( 1.00)
        I              7.00   126.90400     I ( 1.00)
        C              4.00    12.00000     C ( 1.00)
        N              5.00    14.00300     N ( 1.00)
        H              1.00     1.00700     H ( 1.00)

     No symmetry found



   Cartesian axes

     site n.     atom                  positions (alat units)
         1           Pb  tau(   1) = (  -0.0140615  -0.0252411   0.0100569  )
         2           Pb  tau(   2) = (   0.4892197  -0.0208180   0.0023047  )
         3           Pb  tau(   3) = (  -0.0146206   0.4949468   0.0102879  )
         4           Pb  tau(   4) = (   0.0236769  -0.0173076   0.5199729  )
         5           Pb  tau(   5) = (   0.4931530   0.4956599  -0.0029593  )
         6           Pb  tau(   6) = (   0.0223005   0.4929777   0.5120941  )
         7           Pb  tau(   7) = (   0.5310704  -0.0193452   0.5109417  )
         8           Pb  tau(   8) = (   0.5272866   0.4985193   0.5079271  )
         9           I   tau(   9) = (   0.2395525  -0.0077238  -0.0447678  )
        10           I   tau(  10) = (   0.7448572  -0.0054304   0.0413281  )
        11           I   tau(  11) = (   0.2392831   0.5025966   0.0604344  )
        12           I   tau(  12) = (   0.2747041  -0.0352404   0.5334295  )
        13           I   tau(  13) = (   0.7455523   0.5024635  -0.0547096  )
        14           I   tau(  14) = (   0.2734702   0.4854585   0.4644453  )
        15           I   tau(  15) = (   0.7797482  -0.0196491   0.4833159  )
        16           I   tau(  16) = (   0.7791487   0.4710833   0.5471074  )
        17           I   tau(  17) = (  -0.0259408   0.2391188   0.0053297  )
        18           I   tau(  18) = (   0.4823924   0.2398740   0.0090932  )
        19           I   tau(  19) = (  -0.0331599   0.7517955   0.0032325  )
        20           I   tau(  20) = (   0.0398087   0.2366420   0.5124015  )
        21           I   tau(  21) = (   0.4758649   0.7530920  -0.0003359  )
        22           I   tau(  22) = (   0.0266713   0.7485694   0.5194233  )
        23           I   tau(  23) = (   0.5321386   0.2359477   0.5098332  )
        24           I   tau(  24) = (   0.5490282   0.7496496   0.5115922  )
        25           I   tau(  25) = (   0.0366960  -0.0311526   0.2608725  )
        26           I   tau(  26) = (   0.4749159  -0.0237459   0.2570657  )
        27           I   tau(  27) = (  -0.0522528   0.4965828   0.2612730  )
        28           I   tau(  28) = (  -0.0384973  -0.0211454   0.7675389  )
        29           I   tau(  29) = (   0.5577866   0.4966460   0.2508987  )
        30           I   tau(  30) = (   0.0510102   0.4913063   0.7678189  )
        31           I   tau(  31) = (   0.5396694  -0.0251978   0.7650890  )
        32           I   tau(  32) = (   0.4615605   0.4838815   0.7584098  )
        33           C   tau(  33) = (   0.2392702   0.2574493   0.2552774  )
        34           C   tau(  34) = (   0.7710921   0.2611703   0.2804524  )
        35           C   tau(  35) = (   0.2487045   0.7544304   0.2961130  )
        36           C   tau(  36) = (   0.2615987   0.2576623   0.7439687  )
        37           C   tau(  37) = (   0.7591703   0.8140032   0.2554840  )
        38           C   tau(  38) = (   0.2569625   0.7932980   0.7563180  )
        39           C   tau(  39) = (   0.7411580   0.2592669   0.7654150  )
        40           C   tau(  40) = (   0.7665750   0.7702243   0.7451945  )
        41           N   tau(  41) = (   0.2058487   0.2027674   0.1726683  )
        42           N   tau(  42) = (   0.6997316   0.2406132   0.2066873  )
        43           N   tau(  43) = (   0.1650773   0.6977237   0.2693739  )
        44           N   tau(  44) = (   0.1898161   0.2397722   0.8179789  )
        45           N   tau(  45) = (   0.6713654   0.7638961   0.2284633  )
        46           N   tau(  46) = (   0.1768249   0.7521452   0.8096341  )
        47           N   tau(  47) = (   0.7128360   0.2086667   0.8523107  )
        48           N   tau(  48) = (   0.6957878   0.7626650   0.8218850  )
        49           N   tau(  49) = (   0.3178016   0.2287330   0.3181080  )
        50           N   tau(  50) = (   0.8569779   0.2041289   0.2981543  )
        51           N   tau(  51) = (   0.3454441   0.7375753   0.2600514  )
        52           N   tau(  52) = (   0.3440383   0.1961970   0.7248140  )
        53           N   tau(  53) = (   0.8504231   0.7688816   0.2791381  )
        54           N   tau(  54) = (   0.3331937   0.7379745   0.7109161  )
        55           N   tau(  55) = (   0.8176492   0.2289063   0.7007760  )
        56           N   tau(  56) = (   0.8448174   0.7024169   0.7301153  )
        57           H   tau(  57) = (   0.1996200   0.3327343   0.2733757  )
        58           H   tau(  58) = (   0.7582644   0.3309337   0.3309785  )
        59           H   tau(  59) = (   0.2374937   0.8200842   0.3522687  )
        60           H   tau(  60) = (   0.2518478   0.3288143   0.6947974  )
        61           H   tau(  61) = (   0.7560542   0.9007550   0.2587750  )
        62           H   tau(  62) = (   0.2604163   0.8798524   0.7490314  )
        63           H   tau(  63) = (   0.6984963   0.3323810   0.7452792  )
        64           H   tau(  64) = (   0.7600493   0.8373518   0.6901406  )
        65           H   tau(  65) = (   0.2388458   0.1319562   0.1502462  )
        66           H   tau(  66) = (   0.7061090   0.1768839   0.1558909  )
        67           H   tau(  67) = (   0.1700090   0.6350217   0.2172175  )
        68           H   tau(  68) = (   0.1936226   0.1748167   0.8674499  )
        69           H   tau(  69) = (   0.6629286   0.6826001   0.2274409  )
        70           H   tau(  70) = (   0.1631803   0.6718317   0.8144833  )
        71           H   tau(  71) = (   0.7490060   0.1404361   0.8778723  )
        72           H   tau(  72) = (   0.6968808   0.7014687   0.8758974  )
        73           H   tau(  73) = (   0.1432555   0.2297452   0.1275565  )
        74           H   tau(  74) = (   0.6365464   0.2910923   0.1978426  )
        75           H   tau(  75) = (   0.0954078   0.7099098   0.3091087  )
        76           H   tau(  76) = (   0.1285500   0.2922946   0.8276119  )
        77           H   tau(  77) = (   0.6056271   0.8082003   0.2110774  )
        78           H   tau(  78) = (   0.1214330   0.8004270   0.8440431  )
        79           H   tau(  79) = (   0.6510633   0.2361571   0.8980562  )
        80           H   tau(  80) = (   0.6365120   0.8182414   0.8266057  )
        81           H   tau(  81) = (   0.3600003   0.1597686   0.3073076  )
        82           H   tau(  82) = (   0.8756881   0.1374033   0.2557233  )
        83           H   tau(  83) = (   0.3625133   0.6785512   0.2068171  )
        84           H   tau(  84) = (   0.3589510   0.1281458   0.7667295  )
        85           H   tau(  85) = (   0.8640180   0.6883572   0.2752676  )
        86           H   tau(  86) = (   0.3408352   0.6569727   0.7185496  )
        87           H   tau(  87) = (   0.8617647   0.1613791   0.7134066  )
        88           H   tau(  88) = (   0.8550770   0.6368743   0.7770401  )
        89           H   tau(  89) = (   0.3380259   0.2761618   0.3809769  )
        90           H   tau(  90) = (   0.9082182   0.2244162   0.3584189  )
        91           H   tau(  91) = (   0.4038199   0.7909336   0.2784424  )
        92           H   tau(  92) = (   0.3963528   0.2153414   0.6649756  )
        93           H   tau(  93) = (   0.9138208   0.8171839   0.2955816  )
        94           H   tau(  94) = (   0.3909212   0.7756434   0.6676223  )
        95           H   tau(  95) = (   0.8336157   0.2742167   0.6351403  )
        96           H   tau(  96) = (   0.8973561   0.7141189   0.6687753  )

     number of k points=    32
                       cart. coord. in units 2pi/alat
        k(    1) = (   0.1236579   0.1217832   0.1234055), wk =   0.0625000
        k(    2) = (   0.1236579   0.1217832   0.3702165), wk =   0.0625000
        k(    3) = (   0.1236579   0.3653496   0.1234055), wk =   0.0625000
        k(    4) = (   0.1236579   0.3653496   0.3702165), wk =   0.0625000
        k(    5) = (   0.3709736   0.1217832   0.1234055), wk =   0.0625000
        k(    6) = (   0.3709736   0.1217832   0.3702165), wk =   0.0625000
        k(    7) = (   0.3709736   0.3653496   0.1234055), wk =   0.0625000
        k(    8) = (   0.3709736   0.3653496   0.3702165), wk =   0.0625000
        k(    9) = (  -0.1236579  -0.1217832   0.1234055), wk =   0.0625000
        k(   10) = (  -0.1236579   0.1217832  -0.1234055), wk =   0.0625000
        k(   11) = (   0.1236579  -0.1217832  -0.1234055), wk =   0.0625000
        k(   12) = (  -0.1236579  -0.1217832   0.3702165), wk =   0.0625000
        k(   13) = (  -0.1236579   0.1217832  -0.3702165), wk =   0.0625000
        k(   14) = (   0.1236579  -0.1217832  -0.3702165), wk =   0.0625000
        k(   15) = (  -0.1236579  -0.3653496   0.1234055), wk =   0.0625000
        k(   16) = (  -0.1236579   0.3653496  -0.1234055), wk =   0.0625000
        k(   17) = (   0.1236579  -0.3653496  -0.1234055), wk =   0.0625000
        k(   18) = (  -0.1236579  -0.3653496   0.3702165), wk =   0.0625000
        k(   19) = (  -0.1236579   0.3653496  -0.3702165), wk =   0.0625000
        k(   20) = (   0.1236579  -0.3653496  -0.3702165), wk =   0.0625000
        k(   21) = (  -0.3709736  -0.1217832   0.1234055), wk =   0.0625000
        k(   22) = (  -0.3709736   0.1217832  -0.1234055), wk =   0.0625000
        k(   23) = (   0.3709736  -0.1217832  -0.1234055), wk =   0.0625000
        k(   24) = (  -0.3709736  -0.1217832   0.3702165), wk =   0.0625000
        k(   25) = (  -0.3709736   0.1217832  -0.3702165), wk =   0.0625000
        k(   26) = (   0.3709736  -0.1217832  -0.3702165), wk =   0.0625000
        k(   27) = (  -0.3709736  -0.3653496   0.1234055), wk =   0.0625000
        k(   28) = (  -0.3709736   0.3653496  -0.1234055), wk =   0.0625000
        k(   29) = (   0.3709736  -0.3653496  -0.1234055), wk =   0.0625000
        k(   30) = (  -0.3709736  -0.3653496   0.3702165), wk =   0.0625000
        k(   31) = (  -0.3709736   0.3653496  -0.3702165), wk =   0.0625000
        k(   32) = (   0.3709736  -0.3653496  -0.3702165), wk =   0.0625000

     Dense  grid:  2490953 G-vectors     FFT dimensions: ( 180, 180, 180)

     Estimated max dynamical RAM per process >       1.82 GB

     Estimated total dynamical RAM >      58.35 GB

     Initial potential from superposition of free atoms

     starting charge  431.97851, renormalised to  432.00000
     Starting wfcs are  304 randomized atomic wfcs
     Checking if some PAW data can be deallocated... 

     total cpu time spent up to now is     1257.5 secs

     Self-consistent Calculation

     iteration #  1     ecut=   120.00 Ry     beta= 0.70
     Davidson diagonalization with overlap
     ethr =  1.00E-02,  avg # of iterations =  2.0

     total cpu time spent up to now is     3813.1 secs

     total energy              =  -16705.00876242 Ry
     Harris-Foulkes estimate   =  -16709.29126538 Ry
     estimated scf accuracy    <       6.77614569 Ry

     iteration #  2     ecut=   120.00 Ry     beta= 0.70
     Davidson diagonalization with overlap
     ethr =  1.57E-03,  avg # of iterations =  4.0

     total cpu time spent up to now is     7201.4 secs

     total energy              =  -16706.55079087 Ry
     Harris-Foulkes estimate   =  -16708.64330758 Ry
     estimated scf accuracy    <       3.89973977 Ry

     iteration #  3     ecut=   120.00 Ry     beta= 0.70
     Davidson diagonalization with overlap
     ethr =  9.03E-04,  avg # of iterations =  3.0

     total cpu time spent up to now is     9882.0 secs

     total energy              =  -16707.41578403 Ry
     Harris-Foulkes estimate   =  -16707.48267995 Ry
     estimated scf accuracy    <       0.14547750 Ry

     iteration #  4     ecut=   120.00 Ry     beta= 0.70
     Davidson diagonalization with overlap
     ethr =  3.37E-05,  avg # of iterations =  4.0

     total cpu time spent up to now is    13509.1 secs

     total energy              =  -16707.45922384 Ry
     Harris-Foulkes estimate   =  -16707.47905946 Ry
     estimated scf accuracy    <       0.03944654 Ry

     iteration #  5     ecut=   120.00 Ry     beta= 0.70
     Davidson diagonalization with overlap
     ethr =  9.13E-06,  avg # of iterations =  3.0

     total cpu time spent up to now is    16394.6 secs

     total energy              =  -16707.46670868 Ry
     Harris-Foulkes estimate   =  -16707.46801287 Ry
     estimated scf accuracy    <       0.00241234 Ry

     iteration #  6     ecut=   120.00 Ry     beta= 0.70
     Davidson diagonalization with overlap
     ethr =  5.58E-07,  avg # of iterations =  4.0

     total cpu time spent up to now is    20047.7 secs

     total energy              =  -16707.46738845 Ry
     Harris-Foulkes estimate   =  -16707.46795180 Ry
     estimated scf accuracy    <       0.00125900 Ry

     iteration #  7     ecut=   120.00 Ry     beta= 0.70
     Davidson diagonalization with overlap
     ethr =  2.91E-07,  avg # of iterations =  3.9

     total cpu time spent up to now is    22969.5 secs

     total energy              =  -16707.46765635 Ry
     Harris-Foulkes estimate   =  -16707.46769170 Ry
     estimated scf accuracy    <       0.00008100 Ry

     iteration #  8     ecut=   120.00 Ry     beta= 0.70
     Davidson diagonalization with overlap
     ethr =  1.87E-08,  avg # of iterations =  4.0

     total cpu time spent up to now is    26245.2 secs

     total energy              =  -16707.46767830 Ry
     Harris-Foulkes estimate   =  -16707.46768719 Ry
     estimated scf accuracy    <       0.00001943 Ry

     iteration #  9     ecut=   120.00 Ry     beta= 0.70
     Davidson diagonalization with overlap
     ethr =  4.50E-09,  avg # of iterations =  4.0

     total cpu time spent up to now is    29322.5 secs

     total energy              =  -16707.46768251 Ry
     Harris-Foulkes estimate   =  -16707.46768327 Ry
     estimated scf accuracy    <       0.00000161 Ry

     iteration # 10     ecut=   120.00 Ry     beta= 0.70
     Davidson diagonalization with overlap
     ethr =  3.72E-10,  avg # of iterations =  4.0

     total cpu time spent up to now is    32436.0 secs

     total energy              =  -16707.46768292 Ry
     Harris-Foulkes estimate   =  -16707.46768305 Ry
     estimated scf accuracy    <       0.00000027 Ry

     iteration # 11     ecut=   120.00 Ry     beta= 0.70
     Davidson diagonalization with overlap
     ethr =  6.35E-11,  avg # of iterations =  4.0

     total cpu time spent up to now is    35552.4 secs

     End of self-consistent calculation

          k = 0.1237 0.1218 0.1234 (311355 PWs)   bands (ev):

   -18.0052 -17.9419 -17.9185 -17.8901 -17.8778 -17.8541 -17.8530 -17.8305
   -15.7753 -15.7477 -15.7092 -15.6683 -15.6621 -15.6232 -15.6156 -15.5823
   -14.3764 -14.3674 -14.3398 -14.3354 -14.3350 -14.3299 -14.3244 -14.3223
   -14.3057 -14.2999 -14.2965 -14.2958 -14.2915 -14.2899 -14.2895 -14.2876
   -14.2874 -14.2799 -14.2786 -14.2771 -14.2746 -14.2742 -14.2629 -14.2616
   -14.2597 -14.2585 -14.2572 -14.2561 -14.2552 -14.2548 -14.2533 -14.2499
   -14.2427 -14.2410 -14.2403 -14.2313 -14.2285 -14.2257 -14.2219 -14.2178
    -9.8444  -9.8003  -9.7438  -9.7192  -9.6843  -9.6653  -9.6251  -9.6092
    -9.5093  -9.4992  -9.4377  -9.3948  -9.3686  -9.3365  -9.3106  -9.2672
    -9.2373  -9.2177  -9.1933  -9.1710  -9.1455  -9.1345  -9.1067  -9.0844
    -9.0665  -9.0475  -9.0304  -9.0096  -8.9919  -8.9756  -8.9181  -8.8837
    -7.8489  -7.7531  -7.7323  -7.6974  -7.6923  -7.6587  -7.6575  -7.6482
    -7.1370  -7.1228  -7.1108  -7.0673  -7.0545  -7.0218  -7.0091  -6.9574
    -5.9021  -5.5417  -5.4969  -5.4553  -5.4340  -5.3899  -5.3759  -5.3566
    -5.3548  -5.3195  -5.3085  -5.2992  -5.0722  -5.0253  -5.0133  -4.6291
    -3.9302  -3.8828  -3.8737  -3.8348  -3.8292  -3.8063  -3.7884  -3.7843
    -3.3578  -3.3450  -3.3342  -3.2978  -3.2802  -3.2676  -3.2521  -3.2233
    -0.9114  -0.8745  -0.8334  -0.7809  -0.7467  -0.7234  -0.7024  -0.6708
    -0.6278  -0.6132  -0.5569  -0.5047  -0.2205  -0.1885  -0.1533  -0.1362
    -0.1086  -0.0678  -0.0390  -0.0082   0.3200   0.3932   0.4253   0.4548
     0.4741   0.4901   0.5114   0.5337   0.5596   0.6136   0.6518   0.7178
     0.7430   0.7732   0.8206   0.8455   0.8596   0.8925   0.9235   0.9416
     0.9666   0.9928   0.9950   1.0169   1.0300   1.0469   1.0627   1.0695
     1.0890   1.1083   1.1271   1.1486   1.1639   1.1792   1.2003   1.2206
     1.2360   1.2496   1.2722   1.2805   1.3028   1.3119   1.3392   1.3775
     1.3891   1.4129   1.4278   1.4406   1.4682   1.4890   1.5423   1.5717
     1.6318   1.6616   1.6775   1.7193   1.7596   1.8006   1.8308   2.0669

          k = 0.1237 0.1218 0.3702 (311403 PWs)   bands (ev):

   -18.0052 -17.9419 -17.9185 -17.8901 -17.8778 -17.8541 -17.8531 -17.8305
   -15.7753 -15.7477 -15.7092 -15.6682 -15.6621 -15.6233 -15.6156 -15.5823
   -14.3762 -14.3674 -14.3398 -14.3354 -14.3349 -14.3299 -14.3241 -14.3221
   -14.3054 -14.2999 -14.2963 -14.2958 -14.2919 -14.2901 -14.2896 -14.2874
   -14.2873 -14.2800 -14.2786 -14.2771 -14.2747 -14.2742 -14.2629 -14.2618
   -14.2597 -14.2585 -14.2572 -14.2562 -14.2553 -14.2549 -14.2533 -14.2499
   -14.2427 -14.2410 -14.2403 -14.2313 -14.2285 -14.2257 -14.2219 -14.2178
    -9.8266  -9.7925  -9.7400  -9.7215  -9.6932  -9.6797  -9.6483  -9.6148
    -9.5125  -9.4777  -9.4312  -9.3998  -9.3706  -9.3348  -9.3133  -9.2962
    -9.2472  -9.2276  -9.1735  -9.1503  -9.1301  -9.1159  -9.0936  -9.0800
    -9.0638  -9.0510  -9.0256  -9.0199  -9.0073  -8.9789  -8.9261  -8.8854
    -7.8490  -7.7532  -7.7314  -7.6962  -7.6929  -7.6590  -7.6578  -7.6496
    -7.1370  -7.1228  -7.1109  -7.0672  -7.0547  -7.0218  -7.0091  -6.9574
    -5.7889  -5.6179  -5.5341  -5.3916  -5.3898  -5.3696  -5.3663  -5.3510
    -5.3304  -5.3153  -5.3010  -5.2962  -5.1862  -5.1473  -4.9309  -4.7567
    -3.9293  -3.8818  -3.8731  -3.8369  -3.8287  -3.8059  -3.7878  -3.7862
    -3.3577  -3.3449  -3.3339  -3.2975  -3.2806  -3.2677  -3.2523  -3.2233
    -0.8777  -0.8216  -0.7679  -0.7297  -0.6945  -0.6496  -0.6392  -0.5749
    -0.4593  -0.4129  -0.3169  -0.2554  -0.2035  -0.1604  -0.1467  -0.1329
    -0.0930  -0.0612  -0.0463  -0.0106   0.1343   0.2112   0.2694   0.3585
     0.3697   0.4011   0.4281   0.4886   0.5013   0.5281   0.5452   0.5686
     0.6163   0.6809   0.8017   0.8138   0.8554   0.8852   0.8962   0.9244
     0.9341   0.9566   0.9804   1.0027   1.0295   1.0358   1.0671   1.0888
     1.1077   1.1240   1.1408   1.1573   1.1884   1.1967   1.2155   1.2295
     1.2454   1.2571   1.2715   1.2908   1.3101   1.3263   1.3397   1.3470
     1.3888   1.4075   1.4107   1.4435   1.4723   1.4882   1.4990   1.5297
     1.5911   1.6219   1.6405   1.6585   1.7077   1.7270   1.7952   1.9279

          k = 0.1237 0.3653 0.1234 (311257 PWs)   bands (ev):

   -18.0052 -17.9419 -17.9185 -17.8901 -17.8778 -17.8541 -17.8530 -17.8305
   -15.7753 -15.7477 -15.7092 -15.6683 -15.6621 -15.6232 -15.6156 -15.5823
   -14.3764 -14.3672 -14.3398 -14.3354 -14.3349 -14.3299 -14.3241 -14.3220
   -14.3055 -14.2999 -14.2966 -14.2958 -14.2916 -14.2904 -14.2896 -14.2876
   -14.2874 -14.2797 -14.2787 -14.2771 -14.2745 -14.2742 -14.2629 -14.2609
   -14.2596 -14.2585 -14.2572 -14.2560 -14.2553 -14.2549 -14.2543 -14.2499
   -14.2427 -14.2410 -14.2403 -14.2313 -14.2285 -14.2257 -14.2219 -14.2178
    -9.8385  -9.8060  -9.7412  -9.7196  -9.6832  -9.6665  -9.6240  -9.6124
    -9.5053  -9.4707  -9.4297  -9.4136  -9.3749  -9.3579  -9.3285  -9.3112
    -9.2346  -9.2097  -9.1772  -9.1691  -9.1313  -9.1160  -9.0927  -9.0797
    -9.0563  -9.0510  -9.0316  -9.0040  -8.9977  -8.9707  -8.9227  -8.9027
    -7.8480  -7.7525  -7.7326  -7.6977  -7.6894  -7.6604  -7.6566  -7.6500
    -7.1367  -7.1228  -7.1108  -7.0675  -7.0542  -7.0217  -7.0094  -6.9575
    -5.7908  -5.5893  -5.5362  -5.4002  -5.3858  -5.3772  -5.3655  -5.3511
    -5.3368  -5.3214  -5.3058  -5.2917  -5.1782  -5.1433  -4.9419  -4.7685
    -3.9287  -3.8826  -3.8750  -3.8341  -3.8282  -3.8075  -3.7877  -3.7851
    -3.3583  -3.3437  -3.3346  -3.2983  -3.2782  -3.2696  -3.2523  -3.2235
    -0.9047  -0.8662  -0.7396  -0.7216  -0.7056  -0.6619  -0.5986  -0.5429
    -0.4073  -0.3750  -0.3080  -0.2301  -0.1985  -0.1659  -0.1513  -0.1242
    -0.1109  -0.0773  -0.0382  -0.0135   0.1698   0.2270   0.3011   0.3226
     0.3819   0.4492   0.4712   0.4866   0.4994   0.5090   0.5209   0.6052
     0.6259   0.6855   0.7201   0.7419   0.7918   0.8437   0.8834   0.9066
     0.9295   0.9768   0.9890   1.0095   1.0339   1.0450   1.0608   1.0788
     1.0970   1.1146   1.1451   1.1613   1.1847   1.1981   1.2049   1.2276
     1.2475   1.2633   1.2794   1.2935   1.3045   1.3297   1.3501   1.3827
     1.3902   1.4050   1.4178   1.4404   1.4665   1.4762   1.5069   1.5278
     1.5503   1.5790   1.6138   1.6529   1.6843   1.6966   1.8237   1.8908

          k = 0.1237 0.3653 0.3702 (311333 PWs)   bands (ev):

   -18.0052 -17.9419 -17.9185 -17.8901 -17.8778 -17.8541 -17.8531 -17.8305
   -15.7753 -15.7477 -15.7092 -15.6682 -15.6621 -15.6233 -15.6156 -15.5823
   -14.3762 -14.3672 -14.3398 -14.3354 -14.3349 -14.3299 -14.3238 -14.3218
   -14.3053 -14.2999 -14.2965 -14.2958 -14.2921 -14.2906 -14.2896 -14.2875
   -14.2874 -14.2798 -14.2787 -14.2771 -14.2746 -14.2742 -14.2629 -14.2611
   -14.2596 -14.2585 -14.2572 -14.2560 -14.2553 -14.2549 -14.2544 -14.2499
   -14.2427 -14.2410 -14.2403 -14.2313 -14.2285 -14.2257 -14.2219 -14.2178
    -9.8226  -9.7953  -9.7368  -9.7222  -9.6904  -9.6825  -9.6486  -9.6164
    -9.5033  -9.4611  -9.4273  -9.4104  -9.3805  -9.3491  -9.3328  -9.3181
    -9.2632  -9.1976  -9.1698  -9.1458  -9.1225  -9.1107  -9.0918  -9.0753
    -9.0589  -9.0456  -9.0271  -9.0125  -9.0096  -8.9638  -8.9330  -8.9053
    -7.8480  -7.7525  -7.7317  -7.6969  -7.6894  -7.6610  -7.6569  -7.6514
    -7.1368  -7.1229  -7.1109  -7.0674  -7.0543  -7.0218  -7.0094  -6.9575
    -5.6814  -5.5511  -5.5148  -5.4566  -5.3921  -5.3796  -5.3644  -5.3541
    -5.3440  -5.3123  -5.3007  -5.2594  -5.2456  -5.0817  -5.0497  -4.8935
    -3.9279  -3.8818  -3.8740  -3.8353  -3.8282  -3.8071  -3.7878  -3.7860
    -3.3582  -3.3437  -3.3343  -3.2982  -3.2787  -3.2697  -3.2525  -3.2236
    -0.8664  -0.7399  -0.6722  -0.6097  -0.4957  -0.4551  -0.3846  -0.3656
    -0.3242  -0.3083  -0.2728  -0.2583  -0.1922  -0.1586  -0.1334  -0.1092
    -0.1006  -0.0710  -0.0425  -0.0156   0.0995   0.1887   0.2019   0.2430
     0.2815   0.3031   0.3204   0.3544   0.4082   0.4936   0.5017   0.5476
     0.5914   0.6349   0.6940   0.7296   0.7521   0.7935   0.8020   0.8295
     0.8491   0.9044   0.9250   0.9570   0.9772   1.0195   1.0240   1.0681
     1.1034   1.1205   1.1276   1.1608   1.1879   1.2077   1.2167   1.2425
     1.2666   1.2828   1.2922   1.3112   1.3225   1.3417   1.3560   1.3753
     1.3818   1.3893   1.4252   1.4378   1.4518   1.4586   1.4936   1.5256
     1.5342   1.5583   1.5896   1.6210   1.6389   1.6695   1.6957   1.7755

          k = 0.3710 0.1218 0.1234 (311364 PWs)   bands (ev):

   -18.0051 -17.9419 -17.9186 -17.8901 -17.8778 -17.8539 -17.8533 -17.8305
   -15.7719 -15.7511 -15.7092 -15.6683 -15.6620 -15.6232 -15.6157 -15.5823
   -14.3761 -14.3672 -14.3398 -14.3357 -14.3351 -14.3299 -14.3244 -14.3223
   -14.3055 -14.2999 -14.2964 -14.2958 -14.2914 -14.2898 -14.2895 -14.2874
   -14.2865 -14.2799 -14.2795 -14.2771 -14.2743 -14.2740 -14.2629 -14.2618
   -14.2597 -14.2585 -14.2572 -14.2565 -14.2552 -14.2549 -14.2537 -14.2499
   -14.2427 -14.2410 -14.2403 -14.2313 -14.2285 -14.2257 -14.2219 -14.2178
    -9.8187  -9.7759  -9.7617  -9.7297  -9.7102  -9.6641  -9.6293  -9.6173
    -9.5222  -9.4907  -9.4275  -9.3888  -9.3694  -9.3464  -9.3122  -9.2687
    -9.2321  -9.2185  -9.1940  -9.1796  -9.1450  -9.1322  -9.1181  -9.0826
    -9.0442  -9.0334  -9.0168  -9.0025  -8.9828  -8.9696  -8.9408  -8.9041
    -7.8463  -7.7578  -7.7326  -7.6974  -7.6926  -7.6602  -7.6568  -7.6485
    -7.1356  -7.1228  -7.1106  -7.0673  -7.0542  -7.0221  -7.0086  -6.9575
    -5.7845  -5.6062  -5.5112  -5.4052  -5.3957  -5.3825  -5.3581  -5.3529
    -5.3284  -5.3177  -5.2995  -5.2951  -5.1947  -5.1487  -4.9300  -4.7645
    -3.9306  -3.8812  -3.8746  -3.8346  -3.8292  -3.8065  -3.7880  -3.7856
    -3.3568  -3.3431  -3.3356  -3.2993  -3.2769  -3.2645  -3.2569  -3.2256
    -0.8775  -0.8188  -0.7823  -0.7798  -0.7147  -0.6653  -0.6500  -0.6065
    -0.4614  -0.3525  -0.2902  -0.2376  -0.1822  -0.1616  -0.1343  -0.1173
    -0.0950  -0.0533  -0.0403  -0.0152   0.0995   0.2221   0.3063   0.3686
     0.3959   0.4338   0.4456   0.4945   0.5083   0.5285   0.5579   0.6047
     0.6515   0.6838   0.7670   0.8068   0.8208   0.8485   0.8939   0.9098
     0.9377   0.9643   0.9791   1.0006   1.0211   1.0375   1.0478   1.0733
     1.0957   1.1160   1.1310   1.1638   1.1768   1.1967   1.2146   1.2362
     1.2388   1.2612   1.2793   1.2954   1.3168   1.3298   1.3608   1.3707
     1.4135   1.4169   1.4406   1.4576   1.4645   1.4873   1.5291   1.5552
     1.5832   1.5934   1.6060   1.6315   1.6645   1.6974   1.7874   1.8733

          k = 0.3710 0.1218 0.3702 (311345 PWs)   bands (ev):

   -18.0051 -17.9419 -17.9186 -17.8901 -17.8778 -17.8539 -17.8533 -17.8305
   -15.7719 -15.7511 -15.7092 -15.6683 -15.6620 -15.6232 -15.6157 -15.5823
   -14.3760 -14.3672 -14.3398 -14.3357 -14.3351 -14.3299 -14.3241 -14.3221
   -14.3052 -14.2999 -14.2962 -14.2958 -14.2919 -14.2901 -14.2896 -14.2874
   -14.2862 -14.2799 -14.2797 -14.2771 -14.2743 -14.2741 -14.2629 -14.2620
   -14.2597 -14.2585 -14.2572 -14.2567 -14.2553 -14.2549 -14.2537 -14.2499
   -14.2427 -14.2410 -14.2403 -14.2313 -14.2285 -14.2257 -14.2219 -14.2178
    -9.8030  -9.7703  -9.7477  -9.7259  -9.7150  -9.6876  -9.6574  -9.6217
    -9.4987  -9.4859  -9.4414  -9.4119  -9.3597  -9.3333  -9.3162  -9.2984
    -9.2434  -9.2279  -9.1758  -9.1470  -9.1296  -9.1195  -9.0977  -9.0816
    -9.0552  -9.0375  -9.0184  -9.0019  -8.9876  -8.9786  -8.9439  -8.9089
    -7.8463  -7.7579  -7.7316  -7.6960  -7.6930  -7.6611  -7.6573  -7.6502
    -7.1356  -7.1228  -7.1105  -7.0671  -7.0543  -7.0221  -7.0086  -6.9575
    -5.6749  -5.5305  -5.5053  -5.4802  -5.4032  -5.3896  -5.3625  -5.3561
    -5.3272  -5.3177  -5.3028  -5.2915  -5.2212  -5.0760  -5.0421  -4.8917
    -3.9298  -3.8806  -3.8737  -3.8363  -3.8286  -3.8065  -3.7880  -3.7869
    -3.3568  -3.3429  -3.3354  -3.2990  -3.2769  -3.2644  -3.2570  -3.2255
    -0.8009  -0.7804  -0.7134  -0.6818  -0.5379  -0.4833  -0.4272  -0.3710
    -0.3503  -0.2962  -0.2719  -0.2136  -0.1757  -0.1589  -0.1256  -0.1095
    -0.0837  -0.0704  -0.0362  -0.0213   0.0706   0.1839   0.2101   0.2444
     0.2913   0.3027   0.3381   0.3959   0.4240   0.4603   0.4962   0.5155
     0.6281   0.6929   0.7229   0.7422   0.7902   0.8070   0.8242   0.8446
     0.8977   0.9254   0.9332   0.9464   0.9809   1.0174   1.0323   1.0582
     1.0882   1.1059   1.1354   1.1568   1.1740   1.1947   1.2196   1.2401
     1.2654   1.2742   1.2909   1.3057   1.3195   1.3281   1.3481   1.3670
     1.3887   1.4048   1.4281   1.4469   1.4575   1.4792   1.5026   1.5258
     1.5465   1.5575   1.5904   1.6276   1.6387   1.6738   1.7060   1.7519

          k = 0.3710 0.3653 0.1234 (311298 PWs)   bands (ev):

   -18.0051 -17.9419 -17.9186 -17.8901 -17.8778 -17.8539 -17.8533 -17.8305
   -15.7719 -15.7511 -15.7092 -15.6683 -15.6620 -15.6231 -15.6157 -15.5823
   -14.3761 -14.3670 -14.3398 -14.3357 -14.3351 -14.3299 -14.3241 -14.3220
   -14.3053 -14.2999 -14.2966 -14.2958 -14.2916 -14.2904 -14.2896 -14.2874
   -14.2865 -14.2800 -14.2793 -14.2771 -14.2743 -14.2740 -14.2629 -14.2609
   -14.2596 -14.2585 -14.2572 -14.2566 -14.2554 -14.2549 -14.2547 -14.2499
   -14.2427 -14.2410 -14.2403 -14.2313 -14.2285 -14.2257 -14.2219 -14.2178
    -9.8159  -9.7780  -9.7601  -9.7289  -9.7096  -9.6654  -9.6294  -9.6157
    -9.5136  -9.4758  -9.4281  -9.4044  -9.3760  -9.3699  -9.3140  -9.2998
    -9.2309  -9.2131  -9.1911  -9.1606  -9.1460  -9.1212  -9.0997  -9.0809
    -9.0507  -9.0222  -9.0133  -8.9952  -8.9797  -8.9741  -8.9467  -8.9199
    -7.8456  -7.7570  -7.7328  -7.6980  -7.6896  -7.6609  -7.6569  -7.6500
    -7.1355  -7.1226  -7.1106  -7.0674  -7.0539  -7.0221  -7.0091  -6.9575
    -5.6771  -5.5176  -5.5034  -5.4721  -5.4052  -5.3936  -5.3597  -5.3561
    -5.3275  -5.3148  -5.3026  -5.2683  -5.2405  -5.0865  -5.0564  -4.9015
    -3.9292  -3.8814  -3.8754  -3.8340  -3.8282  -3.8075  -3.7879  -3.7857
    -3.3571  -3.3423  -3.3355  -3.2998  -3.2762  -3.2654  -3.2571  -3.2258
    -0.8705  -0.7630  -0.6925  -0.6292  -0.5602  -0.4614  -0.4118  -0.3656
    -0.3267  -0.2740  -0.2376  -0.2050  -0.1652  -0.1343  -0.1212  -0.1136
    -0.0943  -0.0577  -0.0466  -0.0207   0.0357   0.1744   0.2078   0.2271
     0.3073   0.3355   0.3906   0.4139   0.4557   0.4633   0.4995   0.5299
     0.5761   0.6523   0.6785   0.7052   0.7641   0.7903   0.8349   0.8628
     0.8949   0.9154   0.9342   0.9624   0.9938   1.0103   1.0515   1.0681
     1.0828   1.0990   1.1131   1.1285   1.1554   1.1937   1.2119   1.2246
     1.2481   1.2666   1.2840   1.2896   1.3166   1.3350   1.3569   1.3727
     1.3858   1.4214   1.4387   1.4511   1.4728   1.4897   1.5047   1.5261
     1.5495   1.5648   1.5851   1.6014   1.6129   1.6280   1.6630   1.7002

          k = 0.3710 0.3653 0.3702 (311385 PWs)   bands (ev):

   -18.0051 -17.9419 -17.9186 -17.8901 -17.8778 -17.8539 -17.8533 -17.8305
   -15.7719 -15.7511 -15.7092 -15.6683 -15.6620 -15.6232 -15.6157 -15.5823
   -14.3760 -14.3670 -14.3398 -14.3357 -14.3351 -14.3299 -14.3238 -14.3217
   -14.3050 -14.2999 -14.2964 -14.2958 -14.2921 -14.2906 -14.2896 -14.2874
   -14.2862 -14.2800 -14.2794 -14.2771 -14.2743 -14.2741 -14.2629 -14.2612
   -14.2596 -14.2585 -14.2572 -14.2567 -14.2554 -14.2549 -14.2547 -14.2499
   -14.2427 -14.2410 -14.2403 -14.2313 -14.2285 -14.2257 -14.2219 -14.2178
    -9.8011  -9.7694  -9.7483  -9.7249  -9.7155  -9.6880  -9.6569  -9.6197
    -9.4952  -9.4668  -9.4335  -9.4095  -9.3955  -9.3569  -9.3391  -9.3015
    -9.2540  -9.1951  -9.1668  -9.1460  -9.1298  -9.1135  -9.0943  -9.0791
    -9.0529  -9.0284  -9.0111  -8.9971  -8.9888  -8.9760  -8.9505  -8.9243
    -7.8455  -7.7570  -7.7319  -7.6971  -7.6895  -7.6620  -7.6573  -7.6517
    -7.1356  -7.1227  -7.1106  -7.0673  -7.0540  -7.0221  -7.0091  -6.9574
    -5.5715  -5.5163  -5.4295  -5.4075  -5.3951  -5.3877  -5.3601  -5.3487
    -5.3411  -5.3194  -5.3060  -5.2952  -5.2234  -5.1854  -5.1671  -5.0250
    -3.9284  -3.8805  -3.8747  -3.8354  -3.8274  -3.8077  -3.7878  -3.7867
    -3.3572  -3.3423  -3.3354  -3.2996  -3.2761  -3.2654  -3.2571  -3.2258
    -0.5918  -0.5177  -0.4861  -0.4359  -0.4164  -0.3726  -0.3503  -0.3335
    -0.3067  -0.2610  -0.2404  -0.2022  -0.1604  -0.1571  -0.1208  -0.1029
    -0.0838  -0.0670  -0.0413  -0.0254   0.0310   0.1438   0.1661   0.1813
     0.2271   0.2546   0.2682   0.2915   0.3261   0.3642   0.4049   0.4671
     0.6109   0.6743   0.6977   0.7343   0.7653   0.7783   0.8026   0.8262
     0.8578   0.8619   0.8762   0.8991   0.9328   0.9604   0.9874   0.9982
     1.0382   1.0437   1.0656   1.0821   1.0886   1.1268   1.1365   1.1582
     1.2532   1.2748   1.2965   1.3142   1.3314   1.3432   1.3638   1.3690
     1.3885   1.4081   1.4253   1.4395   1.4602   1.4767   1.5039   1.5161
     1.5252   1.5440   1.5597   1.5766   1.5963   1.6050   1.6462   1.6600

          k =-0.1237-0.1218 0.1234 (311355 PWs)   bands (ev):

   -18.0052 -17.9419 -17.9185 -17.8901 -17.8778 -17.8541 -17.8530 -17.8305
   -15.7753 -15.7477 -15.7092 -15.6683 -15.6621 -15.6232 -15.6156 -15.5823
   -14.3764 -14.3674 -14.3398 -14.3354 -14.3350 -14.3299 -14.3244 -14.3223
   -14.3057 -14.2999 -14.2965 -14.2958 -14.2915 -14.2899 -14.2895 -14.2876
   -14.2874 -14.2799 -14.2786 -14.2771 -14.2746 -14.2742 -14.2629 -14.2616
   -14.2597 -14.2585 -14.2572 -14.2561 -14.2552 -14.2548 -14.2533 -14.2499
   -14.2427 -14.2410 -14.2403 -14.2313 -14.2285 -14.2257 -14.2219 -14.2178
    -9.8437  -9.8005  -9.7431  -9.7196  -9.6833  -9.6666  -9.6257  -9.6110
    -9.5202  -9.4888  -9.4326  -9.3929  -9.3619  -9.3518  -9.3054  -9.2646
    -9.2431  -9.2070  -9.1970  -9.1768  -9.1503  -9.1304  -9.1076  -9.0821
    -9.0669  -9.0462  -9.0304  -9.0121  -8.9925  -8.9735  -8.9184  -8.8830
    -7.8489  -7.7532  -7.7324  -7.6978  -7.6919  -7.6585  -7.6575  -7.6483
    -7.1370  -7.1228  -7.1109  -7.0673  -7.0545  -7.0218  -7.0091  -6.9574
    -5.9022  -5.5396  -5.4980  -5.4548  -5.4372  -5.3905  -5.3765  -5.3580
    -5.3542  -5.3180  -5.3084  -5.2967  -5.0721  -5.0245  -5.0143  -4.6294
    -3.9302  -3.8826  -3.8737  -3.8350  -3.8291  -3.8062  -3.7883  -3.7845
    -3.3579  -3.3450  -3.3345  -3.2978  -3.2800  -3.2675  -3.2521  -3.2233
    -0.9199  -0.8749  -0.8252  -0.7695  -0.7588  -0.7204  -0.7023  -0.6707
    -0.6270  -0.6149  -0.5578  -0.5048  -0.2164  -0.1847  -0.1492  -0.1444
    -0.1083  -0.0704  -0.0391  -0.0071   0.3215   0.3989   0.4282   0.4546
     0.4739   0.4853   0.5049   0.5456   0.5571   0.6104   0.6421   0.7234
     0.7358   0.7878   0.7983   0.8366   0.8493   0.9007   0.9215   0.9362
     0.9655   0.9806   1.0047   1.0166   1.0292   1.0479   1.0678   1.0831
     1.1034   1.1103   1.1309   1.1496   1.1682   1.1806   1.2044   1.2170
     1.2355   1.2519   1.2698   1.2832   1.2985   1.3120   1.3394   1.3672
     1.3937   1.4078   1.4186   1.4482   1.4700   1.4935   1.5446   1.5688
     1.6360   1.6566   1.6789   1.7153   1.7595   1.7997   1.8327   2.0669

          k =-0.1237 0.1218-0.1234 (311355 PWs)   bands (ev):

   -18.0052 -17.9419 -17.9185 -17.8901 -17.8778 -17.8541 -17.8530 -17.8305
   -15.7753 -15.7477 -15.7092 -15.6683 -15.6621 -15.6232 -15.6156 -15.5823
   -14.3764 -14.3674 -14.3398 -14.3355 -14.3350 -14.3299 -14.3244 -14.3223
   -14.3057 -14.2999 -14.2965 -14.2958 -14.2915 -14.2899 -14.2895 -14.2876
   -14.2874 -14.2799 -14.2786 -14.2771 -14.2745 -14.2742 -14.2629 -14.2616
   -14.2597 -14.2585 -14.2572 -14.2561 -14.2552 -14.2548 -14.2533 -14.2499
   -14.2427 -14.2410 -14.2403 -14.2313 -14.2285 -14.2257 -14.2219 -14.2178
    -9.8445  -9.8004  -9.7440  -9.7186  -9.6837  -9.6654  -9.6245  -9.6114
    -9.5093  -9.4967  -9.4397  -9.3973  -9.3653  -9.3392  -9.3040  -9.2703
    -9.2379  -9.2141  -9.1973  -9.1785  -9.1402  -9.1296  -9.1100  -9.0822
    -9.0693  -9.0452  -9.0331  -9.0064  -8.9954  -8.9738  -8.9181  -8.8834
    -7.8488  -7.7531  -7.7325  -7.6975  -7.6919  -7.6599  -7.6563  -7.6485
    -7.1369  -7.1229  -7.1108  -7.0673  -7.0545  -7.0218  -7.0090  -6.9575
    -5.9020  -5.5414  -5.4973  -5.4580  -5.4381  -5.3856  -5.3766  -5.3577
    -5.3549  -5.3175  -5.3065  -5.2968  -5.0735  -5.0244  -5.0145  -4.6299
    -3.9301  -3.8825  -3.8741  -3.8346  -3.8293  -3.8064  -3.7881  -3.7845
    -3.3577  -3.3451  -3.3342  -3.2977  -3.2807  -3.2672  -3.2521  -3.2233
    -0.9066  -0.8725  -0.8201  -0.7738  -0.7512  -0.7236  -0.7060  -0.6771
    -0.6395  -0.6165  -0.5595  -0.5076  -0.2191  -0.1931  -0.1489  -0.1416
    -0.1081  -0.0662  -0.0357  -0.0098   0.3207   0.4049   0.4250   0.4559
     0.4757   0.4910   0.5098   0.5478   0.5588   0.6113   0.6523   0.7054
     0.7215   0.7858   0.8209   0.8441   0.8871   0.8976   0.9215   0.9246
     0.9604   0.9699   0.9913   1.0134   1.0275   1.0448   1.0631   1.0821
     1.0987   1.1130   1.1305   1.1556   1.1686   1.1857   1.2103   1.2258
     1.2320   1.2440   1.2596   1.2829   1.2948   1.3033   1.3371   1.3727
     1.3910   1.4131   1.4340   1.4443   1.4716   1.4954   1.5445   1.5675
     1.6434   1.6644   1.6772   1.7365   1.7449   1.7869   1.8275   2.0507

          k = 0.1237-0.1218-0.1234 (311355 PWs)   bands (ev):

   -18.0052 -17.9419 -17.9185 -17.8901 -17.8778 -17.8541 -17.8530 -17.8305
   -15.7753 -15.7477 -15.7092 -15.6683 -15.6621 -15.6232 -15.6156 -15.5823
   -14.3764 -14.3674 -14.3398 -14.3355 -14.3350 -14.3299 -14.3244 -14.3223
   -14.3057 -14.2999 -14.2965 -14.2958 -14.2915 -14.2899 -14.2895 -14.2876
   -14.2874 -14.2799 -14.2786 -14.2771 -14.2745 -14.2742 -14.2629 -14.2616
   -14.2597 -14.2585 -14.2572 -14.2561 -14.2552 -14.2548 -14.2533 -14.2499
   -14.2427 -14.2410 -14.2403 -14.2313 -14.2285 -14.2257 -14.2219 -14.2178
    -9.8441  -9.7996  -9.7448  -9.7188  -9.6834  -9.6653  -9.6252  -9.6136
    -9.5196  -9.4849  -9.4347  -9.3961  -9.3614  -9.3488  -9.3002  -9.2682
    -9.2443  -9.2192  -9.1941  -9.1748  -9.1409  -9.1332  -9.1076  -9.0856
    -9.0666  -9.0427  -9.0329  -9.0065  -8.9960  -8.9742  -8.9181  -8.8834
    -7.8489  -7.7532  -7.7325  -7.6974  -7.6921  -7.6594  -7.6566  -7.6484
    -7.1369  -7.1229  -7.1109  -7.0673  -7.0545  -7.0218  -7.0090  -6.9575
    -5.9023  -5.5419  -5.4980  -5.4565  -5.4345  -5.3872  -5.3766  -5.3570
    -5.3538  -5.3196  -5.3077  -5.2986  -5.0715  -5.0249  -5.0146  -4.6299
    -3.9301  -3.8824  -3.8742  -3.8347  -3.8291  -3.8064  -3.7884  -3.7843
    -3.3578  -3.3453  -3.3343  -3.2978  -3.2804  -3.2671  -3.2521  -3.2232
    -0.9182  -0.8590  -0.8219  -0.7804  -0.7494  -0.7242  -0.7047  -0.6760
    -0.6353  -0.6168  -0.5583  -0.5067  -0.2225  -0.1910  -0.1527  -0.1398
    -0.1086  -0.0651  -0.0365  -0.0093   0.3213   0.4045   0.4235   0.4575
     0.4750   0.4907   0.5083   0.5413   0.5580   0.6246   0.6600   0.7099
     0.7378   0.7687   0.8132   0.8348   0.8660   0.9041   0.9209   0.9314
     0.9495   0.9727   0.9827   1.0070   1.0377   1.0570   1.0747   1.0798
     1.0997   1.1240   1.1418   1.1446   1.1648   1.1880   1.1924   1.2268
     1.2353   1.2526   1.2638   1.2780   1.2952   1.3112   1.3337   1.3701
     1.3983   1.4159   1.4228   1.4426   1.4677   1.4994   1.5419   1.5653
     1.6439   1.6622   1.6762   1.7366   1.7449   1.7898   1.8254   2.0549

          k =-0.1237-0.1218 0.3702 (311403 PWs)   bands (ev):

   -18.0052 -17.9419 -17.9185 -17.8901 -17.8778 -17.8541 -17.8531 -17.8305
   -15.7753 -15.7477 -15.7092 -15.6682 -15.6621 -15.6233 -15.6156 -15.5823
   -14.3762 -14.3674 -14.3398 -14.3354 -14.3349 -14.3299 -14.3241 -14.3221
   -14.3054 -14.2999 -14.2963 -14.2958 -14.2919 -14.2901 -14.2896 -14.2874
   -14.2873 -14.2800 -14.2786 -14.2771 -14.2747 -14.2742 -14.2629 -14.2618
   -14.2597 -14.2585 -14.2572 -14.2562 -14.2553 -14.2549 -14.2533 -14.2499
   -14.2427 -14.2410 -14.2403 -14.2313 -14.2285 -14.2257 -14.2219 -14.2178
    -9.8253  -9.7935  -9.7392  -9.7213  -9.6913  -9.6821  -9.6495  -9.6162
    -9.5203  -9.4650  -9.4306  -9.4014  -9.3655  -9.3432  -9.3195  -9.2791
    -9.2589  -9.2214  -9.1803  -9.1497  -9.1311  -9.1150  -9.0945  -9.0746
    -9.0642  -9.0478  -9.0336  -9.0205  -9.0074  -8.9758  -8.9264  -8.8848
    -7.8490  -7.7533  -7.7314  -7.6967  -7.6923  -7.6588  -7.6579  -7.6496
    -7.1370  -7.1228  -7.1110  -7.0672  -7.0547  -7.0218  -7.0091  -6.9573
    -5.7892  -5.6158  -5.5358  -5.3911  -5.3891  -5.3730  -5.3614  -5.3564
    -5.3402  -5.3124  -5.3026  -5.2831  -5.1848  -5.1507  -4.9304  -4.7572
    -3.9294  -3.8817  -3.8731  -3.8371  -3.8286  -3.8057  -3.7878  -3.7864
    -3.3578  -3.3449  -3.3342  -3.2975  -3.2804  -3.2676  -3.2523  -3.2233
    -0.8792  -0.8234  -0.7650  -0.7330  -0.6892  -0.6594  -0.6327  -0.5785
    -0.4622  -0.3994  -0.3241  -0.2500  -0.1834  -0.1713  -0.1501  -0.1298
    -0.0970  -0.0669  -0.0440  -0.0029   0.1211   0.2127   0.2621   0.3563
     0.3717   0.4169   0.4232   0.4802   0.4972   0.5352   0.5551   0.5688
     0.6135   0.6657   0.7946   0.8098   0.8427   0.8869   0.9012   0.9247
     0.9470   0.9591   0.9805   0.9932   1.0352   1.0481   1.0732   1.0821
     1.1106   1.1201   1.1538   1.1606   1.1921   1.1933   1.2176   1.2345
     1.2430   1.2513   1.2681   1.2789   1.3127   1.3236   1.3412   1.3593
     1.3810   1.4020   1.4080   1.4449   1.4743   1.4918   1.5109   1.5200
     1.5927   1.6279   1.6305   1.6548   1.7061   1.7329   1.7941   1.9278

          k =-0.1237 0.1218-0.3702 (311403 PWs)   bands (ev):

   -18.0052 -17.9419 -17.9185 -17.8901 -17.8778 -17.8541 -17.8531 -17.8305
   -15.7753 -15.7477 -15.7092 -15.6682 -15.6621 -15.6233 -15.6156 -15.5823
   -14.3762 -14.3674 -14.3398 -14.3354 -14.3349 -14.3299 -14.3241 -14.3221
   -14.3054 -14.2999 -14.2963 -14.2958 -14.2919 -14.2901 -14.2896 -14.2874
   -14.2873 -14.2800 -14.2786 -14.2771 -14.2747 -14.2742 -14.2629 -14.2618
   -14.2597 -14.2585 -14.2572 -14.2562 -14.2553 -14.2549 -14.2533 -14.2499
   -14.2427 -14.2410 -14.2403 -14.2313 -14.2285 -14.2257 -14.2219 -14.2178
    -9.8260  -9.7936  -9.7384  -9.7226  -9.6935  -9.6792  -9.6480  -9.6172
    -9.5078  -9.4776  -9.4347  -9.3978  -9.3670  -9.3426  -9.3141  -9.2889
    -9.2524  -9.2258  -9.1795  -9.1493  -9.1214  -9.1157  -9.0993  -9.0747
    -9.0669  -9.0519  -9.0261  -9.0191  -9.0092  -8.9778  -8.9259  -8.8851
    -7.8489  -7.7532  -7.7315  -7.6965  -7.6921  -7.6603  -7.6566  -7.6500
    -7.1369  -7.1229  -7.1109  -7.0672  -7.0547  -7.0218  -7.0090  -6.9574
    -5.7887  -5.6174  -5.5351  -5.4023  -5.3840  -5.3693  -5.3640  -5.3533
    -5.3379  -5.3114  -5.2992  -5.2852  -5.1886  -5.1479  -4.9312  -4.7578
    -3.9293  -3.8819  -3.8731  -3.8366  -3.8291  -3.8059  -3.7874  -3.7866
    -3.3576  -3.3450  -3.3338  -3.2974  -3.2811  -3.2673  -3.2523  -3.2233
    -0.8660  -0.8056  -0.7731  -0.7408  -0.6930  -0.6536  -0.6447  -0.5817
    -0.4683  -0.4066  -0.3241  -0.2523  -0.1927  -0.1726  -0.1475  -0.1300
    -0.0903  -0.0591  -0.0471  -0.0086   0.1257   0.2183   0.2648   0.3511
     0.3847   0.4099   0.4276   0.4823   0.5008   0.5322   0.5524   0.5649
     0.6283   0.6598   0.7959   0.8147   0.8616   0.8796   0.9010   0.9157
     0.9498   0.9654   0.9918   1.0043   1.0253   1.0306   1.0572   1.0802
     1.1005   1.1142   1.1570   1.1641   1.1922   1.2075   1.2113   1.2227
     1.2434   1.2517   1.2670   1.2835   1.3050   1.3211   1.3312   1.3647
     1.3847   1.4030   1.4191   1.4460   1.4727   1.4921   1.5190   1.5288
     1.5998   1.6272   1.6400   1.6612   1.7062   1.7406   1.7742   1.8982

          k = 0.1237-0.1218-0.3702 (311403 PWs)   bands (ev):

   -18.0052 -17.9419 -17.9185 -17.8901 -17.8778 -17.8541 -17.8531 -17.8305
   -15.7753 -15.7477 -15.7092 -15.6682 -15.6621 -15.6233 -15.6156 -15.5823
   -14.3762 -14.3674 -14.3398 -14.3354 -14.3349 -14.3299 -14.3241 -14.3221
   -14.3054 -14.2999 -14.2963 -14.2958 -14.2919 -14.2901 -14.2896 -14.2875
   -14.2873 -14.2800 -14.2786 -14.2771 -14.2747 -14.2742 -14.2629 -14.2618
   -14.2597 -14.2585 -14.2572 -14.2562 -14.2553 -14.2549 -14.2533 -14.2499
   -14.2427 -14.2410 -14.2403 -14.2313 -14.2285 -14.2257 -14.2219 -14.2178
    -9.8253  -9.7927  -9.7407  -9.7212  -9.6925  -9.6802  -9.6496  -9.6183
    -9.5175  -9.4609  -9.4309  -9.4017  -9.3695  -9.3484  -9.3047  -9.2865
    -9.2634  -9.2259  -9.1755  -9.1439  -9.1335  -9.1152  -9.0992  -9.0756
    -9.0626  -9.0469  -9.0284  -9.0196  -9.0096  -8.9779  -8.9260  -8.8850
    -7.8490  -7.7533  -7.7315  -7.6964  -7.6925  -7.6597  -7.6570  -7.6498
    -7.1369  -7.1229  -7.1110  -7.0672  -7.0547  -7.0218  -7.0090  -6.9574
    -5.7894  -5.6168  -5.5351  -5.3978  -5.3822  -5.3719  -5.3621  -5.3508
    -5.3373  -5.3158  -5.3034  -5.2906  -5.1822  -5.1487  -4.9314  -4.7576
    -3.9293  -3.8817  -3.8732  -3.8367  -3.8289  -3.8058  -3.7881  -3.7859
    -3.3577  -3.3452  -3.3339  -3.2976  -3.2809  -3.2672  -3.2523  -3.2232
    -0.8667  -0.8053  -0.7714  -0.7456  -0.6950  -0.6596  -0.6413  -0.5826
    -0.4528  -0.4082  -0.3184  -0.2521  -0.1971  -0.1701  -0.1534  -0.1284
    -0.0954  -0.0638  -0.0416  -0.0074   0.1262   0.2052   0.2713   0.3562
     0.3819   0.4159   0.4265   0.4878   0.4984   0.5301   0.5516   0.5699
     0.6238   0.6623   0.7881   0.8068   0.8591   0.8821   0.9038   0.9173
     0.9454   0.9682   0.9817   0.9922   1.0201   1.0576   1.0730   1.0893
     1.0935   1.1206   1.1463   1.1663   1.1912   1.1960   1.2099   1.2151
     1.2432   1.2563   1.2820   1.2940   1.3015   1.3255   1.3305   1.3598
     1.3802   1.4059   1.4155   1.4441   1.4792   1.4896   1.5061   1.5318
     1.5940   1.6261   1.6412   1.6621   1.7105   1.7402   1.7729   1.9016

          k =-0.1237-0.3653 0.1234 (311257 PWs)   bands (ev):

   -18.0052 -17.9419 -17.9185 -17.8901 -17.8778 -17.8541 -17.8530 -17.8305
   -15.7753 -15.7477 -15.7092 -15.6683 -15.6621 -15.6232 -15.6156 -15.5823
   -14.3764 -14.3672 -14.3398 -14.3354 -14.3349 -14.3299 -14.3241 -14.3220
   -14.3055 -14.2999 -14.2966 -14.2958 -14.2916 -14.2904 -14.2896 -14.2876
   -14.2874 -14.2797 -14.2787 -14.2771 -14.2745 -14.2742 -14.2629 -14.2609
   -14.2596 -14.2585 -14.2572 -14.2560 -14.2553 -14.2549 -14.2543 -14.2499
   -14.2427 -14.2410 -14.2403 -14.2313 -14.2285 -14.2257 -14.2219 -14.2178
    -9.8383  -9.8058  -9.7393  -9.7209  -9.6836  -9.6673  -9.6241  -9.6128
    -9.5117  -9.4687  -9.4280  -9.4064  -9.3810  -9.3495  -9.3358  -9.3027
    -9.2382  -9.2074  -9.1898  -9.1677  -9.1323  -9.1098  -9.0931  -9.0763
    -9.0614  -9.0497  -9.0302  -9.0082  -8.9956  -8.9702  -8.9229  -8.9016
    -7.8480  -7.7526  -7.7327  -7.6980  -7.6890  -7.6607  -7.6562  -7.6501
    -7.1367  -7.1228  -7.1109  -7.0675  -7.0542  -7.0217  -7.0095  -6.9575
    -5.7907  -5.5891  -5.5363  -5.3980  -5.3898  -5.3790  -5.3667  -5.3550
    -5.3382  -5.3181  -5.3030  -5.2843  -5.1793  -5.1457  -4.9414  -4.7689
    -3.9287  -3.8827  -3.8749  -3.8339  -3.8284  -3.8074  -3.7873  -3.7856
    -3.3584  -3.3437  -3.3349  -3.2983  -3.2780  -3.2695  -3.2523  -3.2235
    -0.9135  -0.8591  -0.7489  -0.7197  -0.6948  -0.6598  -0.5965  -0.5454
    -0.4080  -0.3797  -0.3091  -0.2321  -0.1878  -0.1618  -0.1471  -0.1332
    -0.1108  -0.0800  -0.0373  -0.0137   0.1705   0.2270   0.3021   0.3307
     0.3700   0.4463   0.4752   0.4897   0.4961   0.5011   0.5325   0.5990
     0.6312   0.6667   0.7171   0.7496   0.7971   0.8361   0.8757   0.9150
     0.9308   0.9709   0.9916   1.0168   1.0277   1.0423   1.0574   1.0792
     1.1032   1.1198   1.1487   1.1655   1.1784   1.1989   1.2159   1.2270
     1.2571   1.2653   1.2802   1.2873   1.3020   1.3177   1.3543   1.3834
     1.3924   1.3973   1.4252   1.4379   1.4690   1.4818   1.4946   1.5232
     1.5636   1.5774   1.6144   1.6528   1.6835   1.6910   1.8250   1.8915

          k =-0.1237 0.3653-0.1234 (311257 PWs)   bands (ev):

   -18.0052 -17.9419 -17.9185 -17.8901 -17.8778 -17.8541 -17.8530 -17.8305
   -15.7753 -15.7477 -15.7092 -15.6683 -15.6621 -15.6232 -15.6156 -15.5823
   -14.3764 -14.3672 -14.3398 -14.3354 -14.3349 -14.3299 -14.3241 -14.3220
   -14.3055 -14.2999 -14.2966 -14.2958 -14.2916 -14.2904 -14.2896 -14.2876
   -14.2874 -14.2797 -14.2787 -14.2771 -14.2745 -14.2742 -14.2629 -14.2609
   -14.2596 -14.2585 -14.2572 -14.2560 -14.2553 -14.2549 -14.2543 -14.2499
   -14.2427 -14.2410 -14.2403 -14.2313 -14.2285 -14.2257 -14.2219 -14.2178
    -9.8387  -9.8061  -9.7416  -9.7188  -9.6826  -9.6665  -9.6232  -9.6148
    -9.5036  -9.4686  -9.4357  -9.4099  -9.3827  -9.3460  -9.3353  -9.3072
    -9.2346  -9.2038  -9.1898  -9.1694  -9.1355  -9.1030  -9.0933  -9.0798
    -9.0624  -9.0482  -9.0311  -9.0073  -8.9952  -8.9710  -8.9226  -8.9022
    -7.8480  -7.7526  -7.7328  -7.6977  -7.6889  -7.6612  -7.6558  -7.6504
    -7.1366  -7.1229  -7.1108  -7.0675  -7.0542  -7.0218  -7.0093  -6.9576
    -5.7904  -5.5902  -5.5365  -5.4024  -5.3904  -5.3775  -5.3654  -5.3554
    -5.3392  -5.3153  -5.2998  -5.2819  -5.1808  -5.1477  -4.9409  -4.7700
    -3.9286  -3.8826  -3.8752  -3.8339  -3.8283  -3.8076  -3.7869  -3.7858
    -3.3582  -3.3438  -3.3345  -3.2982  -3.2789  -3.2691  -3.2522  -3.2235
    -0.9030  -0.8648  -0.7379  -0.7117  -0.7041  -0.6614  -0.5942  -0.5414
    -0.4170  -0.3921  -0.3179  -0.2394  -0.1899  -0.1740  -0.1531  -0.1309
    -0.1123  -0.0779  -0.0366  -0.0122   0.1818   0.2466   0.3111   0.3327
     0.3940   0.4512   0.4679   0.4769   0.4948   0.5059   0.5298   0.5984
     0.6198   0.6745   0.7103   0.7501   0.8088   0.8265   0.8841   0.9095
     0.9345   0.9574   0.9804   1.0043   1.0301   1.0503   1.0775   1.0801
     1.1059   1.1160   1.1562   1.1679   1.1835   1.2008   1.2114   1.2248
     1.2376   1.2567   1.2742   1.2948   1.3048   1.3238   1.3554   1.3814
     1.3923   1.3988   1.4162   1.4469   1.4660   1.4826   1.4935   1.5383
     1.5534   1.5808   1.6114   1.6600   1.6787   1.6935   1.8293   1.8719

          k = 0.1237-0.3653-0.1234 (311257 PWs)   bands (ev):

   -18.0052 -17.9419 -17.9185 -17.8901 -17.8778 -17.8541 -17.8530 -17.8305
   -15.7753 -15.7477 -15.7092 -15.6683 -15.6621 -15.6232 -15.6156 -15.5823
   -14.3764 -14.3672 -14.3398 -14.3354 -14.3349 -14.3299 -14.3241 -14.3220
   -14.3055 -14.2999 -14.2966 -14.2958 -14.2916 -14.2904 -14.2896 -14.2876
   -14.2874 -14.2797 -14.2787 -14.2771 -14.2745 -14.2742 -14.2629 -14.2609
   -14.2596 -14.2585 -14.2572 -14.2560 -14.2553 -14.2549 -14.2543 -14.2499
   -14.2427 -14.2410 -14.2403 -14.2313 -14.2285 -14.2257 -14.2219 -14.2178
    -9.8388  -9.8047  -9.7414  -9.7196  -9.6840  -9.6659  -9.6235  -9.6154
    -9.5102  -9.4630  -9.4334  -9.4123  -9.3754  -9.3451  -9.3357  -9.3050
    -9.2420  -9.2147  -9.1843  -9.1660  -9.1310  -9.1093  -9.0923  -9.0811
    -9.0597  -9.0483  -9.0295  -9.0078  -8.9944  -8.9715  -8.9230  -8.9019
    -7.8480  -7.7526  -7.7328  -7.6978  -7.6891  -7.6609  -7.6560  -7.6502
    -7.1366  -7.1229  -7.1109  -7.0675  -7.0542  -7.0218  -7.0094  -6.9576
    -5.7908  -5.5907  -5.5360  -5.4047  -5.3882  -5.3752  -5.3627  -5.3513
    -5.3355  -5.3211  -5.3025  -5.2895  -5.1787  -5.1457  -4.9414  -4.7696
    -3.9286  -3.8826  -3.8751  -3.8339  -3.8283  -3.8075  -3.7875  -3.7853
    -3.3583  -3.3440  -3.3347  -3.2983  -3.2786  -3.2689  -3.2522  -3.2234
    -0.9128  -0.8545  -0.7442  -0.7244  -0.6892  -0.6564  -0.5950  -0.5392
    -0.4183  -0.3874  -0.3165  -0.2379  -0.2051  -0.1742  -0.1586  -0.1260
    -0.1139  -0.0743  -0.0341  -0.0118   0.1838   0.2468   0.3099   0.3334
     0.3936   0.4554   0.4662   0.4786   0.4913   0.5119   0.5342   0.5992
     0.6332   0.6605   0.7016   0.7456   0.8145   0.8176   0.8781   0.9111
     0.9368   0.9577   0.9967   1.0023   1.0255   1.0413   1.0764   1.0853
     1.1065   1.1192   1.1486   1.1649   1.1765   1.1986   1.2110   1.2317
     1.2463   1.2617   1.2847   1.2907   1.3076   1.3175   1.3440   1.3880
     1.3920   1.4054   1.4194   1.4474   1.4594   1.4789   1.5059   1.5256
     1.5587   1.5747   1.6165   1.6597   1.6744   1.6898   1.8286   1.8782

          k =-0.1237-0.3653 0.3702 (311333 PWs)   bands (ev):

   -18.0052 -17.9419 -17.9185 -17.8901 -17.8778 -17.8541 -17.8531 -17.8305
   -15.7753 -15.7477 -15.7092 -15.6682 -15.6621 -15.6233 -15.6156 -15.5823
   -14.3762 -14.3672 -14.3398 -14.3354 -14.3349 -14.3299 -14.3238 -14.3218
   -14.3053 -14.2999 -14.2965 -14.2958 -14.2921 -14.2906 -14.2896 -14.2875
   -14.2874 -14.2798 -14.2787 -14.2771 -14.2746 -14.2742 -14.2629 -14.2611
   -14.2596 -14.2585 -14.2572 -14.2560 -14.2553 -14.2549 -14.2544 -14.2499
   -14.2427 -14.2410 -14.2403 -14.2313 -14.2285 -14.2257 -14.2219 -14.2178
    -9.8220  -9.7955  -9.7341  -9.7233  -9.6912  -9.6839  -9.6487  -9.6170
    -9.5093  -9.4562  -9.4282  -9.4084  -9.3750  -9.3533  -9.3365  -9.2995
    -9.2768  -9.1942  -9.1817  -9.1434  -9.1217  -9.1074  -9.0895  -9.0731
    -9.0624  -9.0461  -9.0267  -9.0178  -9.0067  -8.9630  -8.9332  -8.9042
    -7.8481  -7.7526  -7.7317  -7.6972  -7.6889  -7.6613  -7.6565  -7.6514
    -7.1368  -7.1229  -7.1109  -7.0674  -7.0543  -7.0218  -7.0094  -6.9575
    -5.6818  -5.5421  -5.5155  -5.4756  -5.3883  -5.3813  -5.3644  -5.3574
    -5.3242  -5.3118  -5.2934  -5.2761  -5.2434  -5.0857  -5.0454  -4.8945
    -3.9279  -3.8819  -3.8739  -3.8353  -3.8285  -3.8069  -3.7872  -3.7867
    -3.3583  -3.3437  -3.3346  -3.2982  -3.2785  -3.2696  -3.2525  -3.2236
    -0.8672  -0.7444  -0.6716  -0.6108  -0.4877  -0.4495  -0.3872  -0.3545
    -0.3472  -0.3117  -0.2700  -0.2552  -0.1648  -0.1553  -0.1449  -0.1238
    -0.0908  -0.0655  -0.0427  -0.0056   0.0884   0.1598   0.2030   0.2302
     0.2714   0.3085   0.3338   0.3802   0.4056   0.4965   0.5005   0.5456
     0.5905   0.6358   0.6957   0.7042   0.7404   0.7972   0.8170   0.8312
     0.8569   0.8802   0.9386   0.9587   0.9780   1.0191   1.0365   1.0722
     1.1012   1.1248   1.1312   1.1660   1.1746   1.1977   1.2280   1.2436
     1.2701   1.2789   1.2900   1.3178   1.3206   1.3300   1.3548   1.3700
     1.3809   1.3936   1.4224   1.4408   1.4616   1.4679   1.4897   1.5143
     1.5400   1.5620   1.5904   1.6160   1.6355   1.6614   1.7060   1.7748

          k =-0.1237 0.3653-0.3702 (311333 PWs)   bands (ev):

   -18.0052 -17.9419 -17.9185 -17.8901 -17.8778 -17.8541 -17.8531 -17.8305
   -15.7753 -15.7477 -15.7092 -15.6682 -15.6621 -15.6233 -15.6156 -15.5823
   -14.3762 -14.3672 -14.3398 -14.3354 -14.3349 -14.3299 -14.3238 -14.3218
   -14.3053 -14.2999 -14.2965 -14.2958 -14.2921 -14.2906 -14.2896 -14.2875
   -14.2874 -14.2798 -14.2787 -14.2771 -14.2746 -14.2742 -14.2629 -14.2611
   -14.2596 -14.2585 -14.2572 -14.2560 -14.2553 -14.2549 -14.2544 -14.2499
   -14.2427 -14.2410 -14.2403 -14.2313 -14.2285 -14.2257 -14.2219 -14.2178
    -9.8219  -9.7965  -9.7351  -9.7233  -9.6911  -9.6818  -9.6482  -9.6188
    -9.4977  -9.4599  -9.4361  -9.4028  -9.3812  -9.3565  -9.3353  -9.3043
    -9.2717  -9.1910  -9.1797  -9.1442  -9.1239  -9.1041  -9.0891  -9.0770
    -9.0632  -9.0427  -9.0282  -9.0159  -9.0069  -8.9647  -8.9325  -8.9046
    -7.8480  -7.7526  -7.7318  -7.6969  -7.6888  -7.6619  -7.6560  -7.6519
    -7.1367  -7.1230  -7.1108  -7.0674  -7.0543  -7.0218  -7.0093  -6.9576
    -5.6810  -5.5460  -5.5129  -5.4766  -5.3885  -5.3797  -5.3650  -5.3580
    -5.3259  -5.3098  -5.2936  -5.2770  -5.2394  -5.0858  -5.0459  -4.8959
    -3.9278  -3.8820  -3.8739  -3.8349  -3.8289  -3.8070  -3.7874  -3.7864
    -3.3581  -3.3438  -3.3342  -3.2981  -3.2793  -3.2692  -3.2524  -3.2237
    -0.8627  -0.7312  -0.6702  -0.6029  -0.4977  -0.4520  -0.4023  -0.3611
    -0.3532  -0.3179  -0.2699  -0.2622  -0.1850  -0.1482  -0.1430  -0.1141
    -0.0886  -0.0696  -0.0441  -0.0117   0.0924   0.1695   0.2196   0.2412
     0.2828   0.3157   0.3457   0.3663   0.4065   0.4762   0.5027   0.5396
     0.6000   0.6454   0.6915   0.7106   0.7539   0.7715   0.8169   0.8420
     0.8601   0.8803   0.9418   0.9530   0.9816   1.0020   1.0271   1.0720
     1.0890   1.1152   1.1569   1.1630   1.1894   1.2054   1.2217   1.2343
     1.2586   1.2706   1.2986   1.3111   1.3190   1.3395   1.3580   1.3680
     1.3834   1.3969   1.4262   1.4419   1.4566   1.4837   1.4902   1.5164
     1.5363   1.5571   1.5897   1.6226   1.6435   1.6655   1.7019   1.7460

          k = 0.1237-0.3653-0.3702 (311333 PWs)   bands (ev):

   -18.0052 -17.9419 -17.9185 -17.8901 -17.8778 -17.8541 -17.8531 -17.8305
   -15.7753 -15.7477 -15.7092 -15.6682 -15.6621 -15.6233 -15.6156 -15.5823
   -14.3762 -14.3672 -14.3398 -14.3354 -14.3349 -14.3299 -14.3238 -14.3218
   -14.3053 -14.2999 -14.2965 -14.2958 -14.2921 -14.2906 -14.2896 -14.2875
   -14.2874 -14.2798 -14.2787 -14.2771 -14.2746 -14.2742 -14.2629 -14.2611
   -14.2596 -14.2585 -14.2572 -14.2560 -14.2553 -14.2549 -14.2544 -14.2499
   -14.2427 -14.2410 -14.2403 -14.2313 -14.2285 -14.2257 -14.2219 -14.2178
    -9.8220  -9.7946  -9.7359  -9.7230  -9.6926  -9.6818  -9.6486  -9.6192
    -9.5056  -9.4502  -9.4319  -9.4100  -9.3800  -9.3497  -9.3270  -9.3092
    -9.2811  -9.1979  -9.1715  -9.1479  -9.1181  -9.1079  -9.0959  -9.0713
    -9.0602  -9.0460  -9.0261  -9.0142  -9.0083  -8.9642  -8.9336  -8.9042
    -7.8480  -7.7526  -7.7318  -7.6970  -7.6889  -7.6616  -7.6562  -7.6516
    -7.1367  -7.1229  -7.1109  -7.0674  -7.0543  -7.0218  -7.0093  -6.9576
    -5.6817  -5.5501  -5.5162  -5.4581  -5.3954  -5.3782  -5.3596  -5.3544
    -5.3439  -5.3121  -5.3009  -5.2647  -5.2386  -5.0816  -5.0502  -4.8952
    -3.9278  -3.8820  -3.8738  -3.8349  -3.8289  -3.8069  -3.7879  -3.7860
    -3.3583  -3.3440  -3.3343  -3.2982  -3.2791  -3.2690  -3.2524  -3.2235
    -0.8629  -0.7352  -0.6719  -0.6064  -0.4945  -0.4491  -0.3972  -0.3623
    -0.3222  -0.3157  -0.2817  -0.2656  -0.1955  -0.1610  -0.1431  -0.1169
    -0.0996  -0.0734  -0.0380  -0.0103   0.1004   0.1832   0.2181   0.2619
     0.2881   0.3090   0.3303   0.3577   0.4045   0.4760   0.5059   0.5472
     0.5996   0.6413   0.6816   0.7185   0.7316   0.7858   0.8115   0.8301
     0.8645   0.9060   0.9152   0.9615   0.9841   1.0027   1.0437   1.0733
     1.0882   1.1162   1.1437   1.1624   1.1827   1.1954   1.2324   1.2406
     1.2581   1.2774   1.2905   1.3167   1.3269   1.3386   1.3577   1.3707
     1.3817   1.3923   1.4268   1.4391   1.4564   1.4806   1.4948   1.5212
     1.5380   1.5494   1.5888   1.6202   1.6375   1.6632   1.7041   1.7528

          k =-0.3710-0.1218 0.1234 (311364 PWs)   bands (ev):

   -18.0051 -17.9419 -17.9186 -17.8901 -17.8778 -17.8539 -17.8533 -17.8305
   -15.7719 -15.7511 -15.7092 -15.6683 -15.6620 -15.6232 -15.6157 -15.5823
   -14.3761 -14.3672 -14.3398 -14.3357 -14.3351 -14.3299 -14.3244 -14.3223
   -14.3055 -14.2999 -14.2964 -14.2958 -14.2914 -14.2898 -14.2895 -14.2874
   -14.2865 -14.2799 -14.2795 -14.2771 -14.2743 -14.2740 -14.2629 -14.2618
   -14.2597 -14.2585 -14.2572 -14.2565 -14.2552 -14.2549 -14.2537 -14.2499
   -14.2427 -14.2410 -14.2403 -14.2313 -14.2285 -14.2257 -14.2219 -14.2178
    -9.8184  -9.7746  -9.7614  -9.7313  -9.7096  -9.6640  -9.6306  -9.6186
    -9.5295  -9.4856  -9.4174  -9.3877  -9.3692  -9.3506  -9.3186  -9.2549
    -9.2450  -9.2120  -9.1926  -9.1859  -9.1503  -9.1334  -9.1135  -9.0768
    -9.0436  -9.0394  -9.0151  -9.0055  -8.9846  -8.9623  -8.9443  -8.9030
    -7.8464  -7.7579  -7.7326  -7.6976  -7.6923  -7.6599  -7.6570  -7.6485
    -7.1355  -7.1229  -7.1107  -7.0673  -7.0542  -7.0221  -7.0086  -6.9575
    -5.7849  -5.6058  -5.5097  -5.4052  -5.3983  -5.3777  -5.3592  -5.3546
    -5.3352  -5.3157  -5.3054  -5.2873  -5.1932  -5.1474  -4.9304  -4.7649
    -3.9306  -3.8808  -3.8748  -3.8349  -3.8289  -3.8065  -3.7882  -3.7855
    -3.3569  -3.3431  -3.3358  -3.2993  -3.2767  -3.2644  -3.2570  -3.2256
    -0.8798  -0.8244  -0.7863  -0.7657  -0.7140  -0.6694  -0.6545  -0.6011
    -0.4632  -0.3503  -0.2846  -0.2368  -0.1871  -0.1621  -0.1318  -0.1170
    -0.0932  -0.0575  -0.0416  -0.0100   0.1004   0.2197   0.3094   0.3669
     0.4085   0.4274   0.4492   0.4909   0.5092   0.5344   0.5540   0.5974
     0.6193   0.6996   0.7554   0.7927   0.8250   0.8538   0.8900   0.9084
     0.9480   0.9546   0.9790   0.9921   1.0186   1.0442   1.0715   1.0897
     1.1040   1.1185   1.1392   1.1559   1.1808   1.1993   1.2051   1.2233
     1.2493   1.2605   1.2767   1.2914   1.3083   1.3344   1.3697   1.3904
     1.3944   1.4255   1.4362   1.4562   1.4655   1.4881   1.5209   1.5532
     1.5746   1.5946   1.6131   1.6209   1.6713   1.6992   1.7851   1.8747

          k =-0.3710 0.1218-0.1234 (311364 PWs)   bands (ev):

   -18.0051 -17.9419 -17.9186 -17.8901 -17.8778 -17.8539 -17.8533 -17.8305
   -15.7719 -15.7511 -15.7092 -15.6683 -15.6620 -15.6232 -15.6157 -15.5823
   -14.3761 -14.3672 -14.3398 -14.3357 -14.3351 -14.3299 -14.3244 -14.3223
   -14.3055 -14.2999 -14.2964 -14.2958 -14.2914 -14.2898 -14.2895 -14.2874
   -14.2865 -14.2799 -14.2795 -14.2771 -14.2743 -14.2740 -14.2629 -14.2618
   -14.2597 -14.2585 -14.2572 -14.2565 -14.2552 -14.2549 -14.2537 -14.2499
   -14.2427 -14.2410 -14.2403 -14.2313 -14.2285 -14.2257 -14.2219 -14.2178
    -9.8189  -9.7777  -9.7604  -9.7285  -9.7098  -9.6635  -9.6290  -9.6199
    -9.5239  -9.4875  -9.4275  -9.3928  -9.3683  -9.3447  -9.3111  -9.2594
    -9.2352  -9.2250  -9.1959  -9.1860  -9.1407  -9.1292  -9.1171  -9.0766
    -9.0535  -9.0352  -9.0143  -9.0008  -8.9855  -8.9648  -8.9423  -8.9041
    -7.8463  -7.7579  -7.7327  -7.6973  -7.6923  -7.6608  -7.6562  -7.6488
    -7.1354  -7.1230  -7.1106  -7.0673  -7.0542  -7.0221  -7.0085  -6.9576
    -5.7841  -5.6082  -5.5097  -5.4051  -5.4009  -5.3817  -5.3569  -5.3557
    -5.3322  -5.3150  -5.2968  -5.2862  -5.1970  -5.1500  -4.9297  -4.7658
    -3.9305  -3.8806  -3.8754  -3.8345  -3.8290  -3.8067  -3.7878  -3.7858
    -3.3567  -3.3433  -3.3354  -3.2992  -3.2775  -3.2641  -3.2569  -3.2257
    -0.8756  -0.8149  -0.7869  -0.7710  -0.7002  -0.6696  -0.6525  -0.6068
    -0.4765  -0.3597  -0.2992  -0.2321  -0.1955  -0.1667  -0.1444  -0.1123
    -0.0938  -0.0500  -0.0378  -0.0178   0.1111   0.2409   0.3139   0.3663
     0.4135   0.4320   0.4499   0.4825   0.5105   0.5326   0.5566   0.6055
     0.6342   0.6934   0.7525   0.7930   0.8290   0.8509   0.8815   0.8979
     0.9430   0.9666   0.9852   0.9985   1.0220   1.0390   1.0492   1.0812
     1.1091   1.1298   1.1472   1.1614   1.1740   1.1896   1.2091   1.2253
     1.2359   1.2515   1.2759   1.2888   1.3191   1.3417   1.3633   1.3813
     1.4035   1.4114   1.4341   1.4550   1.4790   1.5012   1.5331   1.5527
     1.5637   1.5965   1.6212   1.6356   1.6568   1.6881   1.7977   1.8517

          k = 0.3710-0.1218-0.1234 (311364 PWs)   bands (ev):

   -18.0051 -17.9419 -17.9186 -17.8901 -17.8778 -17.8539 -17.8533 -17.8305
   -15.7719 -15.7511 -15.7092 -15.6683 -15.6620 -15.6232 -15.6157 -15.5823
   -14.3761 -14.3672 -14.3398 -14.3357 -14.3351 -14.3299 -14.3244 -14.3223
   -14.3055 -14.2999 -14.2964 -14.2958 -14.2914 -14.2898 -14.2895 -14.2874
   -14.2865 -14.2799 -14.2795 -14.2771 -14.2743 -14.2740 -14.2629 -14.2618
   -14.2597 -14.2585 -14.2572 -14.2565 -14.2552 -14.2549 -14.2537 -14.2499
   -14.2427 -14.2410 -14.2403 -14.2313 -14.2285 -14.2257 -14.2219 -14.2178
    -9.8181  -9.7749  -9.7618  -9.7306  -9.7108  -9.6632  -9.6304  -9.6201
    -9.5260  -9.4852  -9.4185  -9.3919  -9.3758  -9.3389  -9.3120  -9.2721
    -9.2343  -9.2208  -9.1915  -9.1866  -9.1409  -9.1296  -9.1188  -9.0826
    -9.0458  -9.0330  -9.0138  -9.0032  -8.9896  -8.9599  -8.9449  -8.9036
    -7.8464  -7.7579  -7.7327  -7.6974  -7.6924  -7.6606  -7.6562  -7.6487
    -7.1354  -7.1229  -7.1107  -7.0673  -7.0542  -7.0221  -7.0085  -6.9576
    -5.7846  -5.6075  -5.5103  -5.4054  -5.4013  -5.3785  -5.3610  -5.3489
    -5.3319  -5.3161  -5.2971  -5.2922  -5.1944  -5.1509  -4.9293  -4.7658
    -3.9305  -3.8807  -3.8753  -3.8345  -3.8291  -3.8065  -3.7881  -3.7856
    -3.3568  -3.3435  -3.3356  -3.2993  -3.2772  -3.2639  -3.2569  -3.2255
    -0.8817  -0.8096  -0.7869  -0.7720  -0.6969  -0.6732  -0.6587  -0.5979
    -0.4779  -0.3568  -0.2964  -0.2351  -0.1968  -0.1618  -0.1444  -0.1139
    -0.0969  -0.0522  -0.0356  -0.0164   0.1108   0.2408   0.3121   0.3689
     0.4147   0.4292   0.4535   0.4798   0.5112   0.5311   0.5674   0.5887
     0.6260   0.6852   0.7721   0.7953   0.8377   0.8563   0.8843   0.9082
     0.9273   0.9606   0.9752   0.9840   1.0235   1.0300   1.0692   1.0963
     1.1052   1.1282   1.1453   1.1535   1.1692   1.1875   1.2099   1.2243
     1.2537   1.2574   1.2693   1.3040   1.3101   1.3327   1.3584   1.3811
     1.4106   1.4237   1.4339   1.4530   1.4761   1.5014   1.5254   1.5424
     1.5652   1.6016   1.6091   1.6366   1.6683   1.6860   1.7951   1.8570

          k =-0.3710-0.1218 0.3702 (311345 PWs)   bands (ev):

   -18.0051 -17.9419 -17.9186 -17.8901 -17.8778 -17.8539 -17.8533 -17.8305
   -15.7719 -15.7511 -15.7092 -15.6683 -15.6620 -15.6232 -15.6157 -15.5823
   -14.3760 -14.3672 -14.3398 -14.3357 -14.3351 -14.3299 -14.3241 -14.3221
   -14.3052 -14.2999 -14.2962 -14.2958 -14.2919 -14.2901 -14.2896 -14.2874
   -14.2862 -14.2799 -14.2797 -14.2771 -14.2743 -14.2741 -14.2629 -14.2620
   -14.2597 -14.2585 -14.2572 -14.2567 -14.2553 -14.2549 -14.2537 -14.2499
   -14.2427 -14.2410 -14.2403 -14.2313 -14.2285 -14.2257 -14.2219 -14.2178
    -9.8026  -9.7689  -9.7476  -9.7284  -9.7119  -9.6887  -9.6593  -9.6228
    -9.5166  -9.4602  -9.4366  -9.4212  -9.3567  -9.3361  -9.3231  -9.2868
    -9.2527  -9.2232  -9.1773  -9.1469  -9.1385  -9.1174  -9.0946  -9.0694
    -9.0597  -9.0403  -9.0230  -9.0030  -8.9929  -8.9651  -8.9494  -8.9076
    -7.8463  -7.7580  -7.7316  -7.6963  -7.6926  -7.6607  -7.6576  -7.6502
    -7.1356  -7.1228  -7.1106  -7.0671  -7.0543  -7.0221  -7.0086  -6.9575
    -5.6764  -5.5230  -5.5070  -5.4810  -5.4051  -5.3879  -5.3641  -5.3559
    -5.3428  -5.3120  -5.3046  -5.2853  -5.2166  -5.0738  -5.0443  -4.8926
    -3.9298  -3.8802  -3.8739  -3.8366  -3.8283  -3.8065  -3.7885  -3.7866
    -3.3568  -3.3429  -3.3357  -3.2990  -3.2767  -3.2643  -3.2570  -3.2255
    -0.8042  -0.7760  -0.7143  -0.6809  -0.5553  -0.4675  -0.4364  -0.3898
    -0.3362  -0.2904  -0.2491  -0.1999  -0.1820  -0.1588  -0.1267  -0.1136
    -0.0985  -0.0579  -0.0407   0.0016   0.0662   0.1516   0.2018   0.2426
     0.2691   0.3194   0.3486   0.3967   0.4411   0.4569   0.4883   0.5247
     0.6221   0.6746   0.7223   0.7456   0.7778   0.8014   0.8193   0.8513
     0.9007   0.9237   0.9432   0.9524   0.9882   1.0178   1.0373   1.0663
     1.0876   1.1120   1.1354   1.1564   1.1825   1.1990   1.2140   1.2362
     1.2582   1.2761   1.2864   1.3002   1.3194   1.3320   1.3551   1.3681
     1.3972   1.4051   1.4164   1.4377   1.4636   1.4778   1.5007   1.5220
     1.5333   1.5706   1.5900   1.6204   1.6459   1.6790   1.7041   1.7510

          k =-0.3710 0.1218-0.3702 (311345 PWs)   bands (ev):

   -18.0051 -17.9419 -17.9186 -17.8901 -17.8778 -17.8539 -17.8533 -17.8305
   -15.7719 -15.7511 -15.7092 -15.6683 -15.6620 -15.6232 -15.6157 -15.5823
   -14.3760 -14.3672 -14.3398 -14.3357 -14.3351 -14.3299 -14.3241 -14.3221
   -14.3052 -14.2999 -14.2962 -14.2958 -14.2919 -14.2901 -14.2896 -14.2874
   -14.2862 -14.2799 -14.2797 -14.2771 -14.2743 -14.2741 -14.2629 -14.2620
   -14.2597 -14.2585 -14.2572 -14.2567 -14.2553 -14.2549 -14.2537 -14.2499
   -14.2427 -14.2410 -14.2403 -14.2313 -14.2285 -14.2257 -14.2219 -14.2178
    -9.8026  -9.7721  -9.7461  -9.7265  -9.7134  -9.6884  -9.6573  -9.6239
    -9.4996  -9.4788  -9.4453  -9.4112  -9.3586  -9.3371  -9.3214  -9.2850
    -9.2511  -9.2277  -9.1800  -9.1463  -9.1271  -9.1165  -9.1004  -9.0702
    -9.0620  -9.0449  -9.0153  -9.0047  -8.9843  -8.9775  -8.9444  -8.9087
    -7.8462  -7.7579  -7.7317  -7.6961  -7.6924  -7.6616  -7.6569  -7.6506
    -7.1354  -7.1230  -7.1105  -7.0672  -7.0543  -7.0222  -7.0085  -6.9575
    -5.6746  -5.5311  -5.5035  -5.4835  -5.4027  -5.3926  -5.3608  -5.3546
    -5.3282  -5.3168  -5.3060  -5.2904  -5.2149  -5.0762  -5.0431  -4.8937
    -3.9297  -3.8804  -3.8739  -3.8361  -3.8288  -3.8066  -3.7881  -3.7868
    -3.3567  -3.3431  -3.3352  -3.2989  -3.2775  -3.2640  -3.2569  -3.2255
    -0.7936  -0.7723  -0.7085  -0.6832  -0.5494  -0.4882  -0.4238  -0.3813
    -0.3494  -0.2989  -0.2862  -0.2007  -0.1808  -0.1638  -0.1285  -0.1205
    -0.0812  -0.0650  -0.0401  -0.0160   0.0780   0.1832   0.2144   0.2476
     0.2991   0.3063   0.3558   0.4018   0.4147   0.4550   0.4921   0.5213
     0.6282   0.6808   0.7172   0.7423   0.7899   0.7921   0.8239   0.8543
     0.9060   0.9221   0.9335   0.9623   0.9842   1.0137   1.0218   1.0711
     1.0866   1.1037   1.1283   1.1650   1.1786   1.2085   1.2185   1.2303
[...]
    -0.2822  -0.2447  -0.2241  -0.1704  -0.1638  -0.1303  -0.1150  -0.1040
    -0.0921  -0.0563  -0.0234   0.0165   0.0359   0.1286   0.1630   0.1780
     0.2348   0.2614   0.2819   0.3145   0.3515   0.3771   0.4394   0.4806
     0.6255   0.6631   0.7074   0.7326   0.7741   0.7959   0.8230   0.8359
     0.8550   0.8891   0.9121   0.9263   0.9486   0.9751   0.9917   1.0212
     1.0451   1.0682   1.0862   1.0912   1.1185   1.1439   1.1531   1.1765
     1.2682   1.2900   1.3230   1.3397   1.3482   1.3615   1.3692   1.3861
     1.4062   1.4220   1.4399   1.4569   1.4829   1.4902   1.5184   1.5292
     1.5377   1.5531   1.5798   1.5968   1.6195   1.6358   1.6566   1.6775

          k =-0.3706 0.3659-0.3708 (311385 PWs)   bands (ev):

   -17.9719 -17.9122 -17.9016 -17.8729 -17.8585 -17.8518 -17.8498 -17.8077
   -15.7467 -15.7340 -15.6855 -15.6498 -15.6402 -15.6259 -15.6224 -15.5637
   -14.3533 -14.3436 -14.3162 -14.3127 -14.3102 -14.3065 -14.3027 -14.2981
   -14.2870 -14.2758 -14.2741 -14.2708 -14.2700 -14.2698 -14.2662 -14.2661
   -14.2615 -14.2609 -14.2586 -14.2577 -14.2548 -14.2502 -14.2428 -14.2421
   -14.2396 -14.2392 -14.2369 -14.2363 -14.2346 -14.2327 -14.2325 -14.2279
   -14.2231 -14.2174 -14.2157 -14.2142 -14.2090 -14.2068 -14.2030 -14.2008
    -9.7877  -9.7597  -9.7379  -9.7187  -9.7035  -9.6779  -9.6483  -9.6142
    -9.4794  -9.4438  -9.4282  -9.3994  -9.3882  -9.3496  -9.3277  -9.2832
    -9.2449  -9.1741  -9.1621  -9.1335  -9.1124  -9.0962  -9.0785  -9.0625
    -9.0413  -9.0210  -8.9939  -8.9865  -8.9656  -8.9559  -8.9353  -8.9073
    -7.8123  -7.7498  -7.6955  -7.6828  -7.6678  -7.6610  -7.6592  -7.6316
    -7.1181  -7.1048  -7.0940  -7.0463  -7.0423  -7.0209  -7.0146  -6.9431
    -5.5536  -5.4784  -5.4175  -5.3976  -5.3813  -5.3660  -5.3471  -5.3425
    -5.3313  -5.3088  -5.2931  -5.2657  -5.2150  -5.1627  -5.1554  -5.0124
    -3.9036  -3.8718  -3.8508  -3.8339  -3.8102  -3.8051  -3.7896  -3.7671
    -3.3430  -3.3243  -3.3106  -3.2727  -3.2703  -3.2621  -3.2549  -3.2072
    -0.5389  -0.5052  -0.4545  -0.4382  -0.3910  -0.3664  -0.3427  -0.3146
    -0.3020  -0.2836  -0.2719  -0.2030  -0.1571  -0.1423  -0.1234  -0.1042
    -0.0782  -0.0578  -0.0439   0.0040   0.1103   0.1586   0.1686   0.2302
     0.2465   0.2703   0.2915   0.3145   0.3447   0.3812   0.4103   0.4430
     0.6532   0.6797   0.7018   0.7353   0.7671   0.7901   0.8086   0.8342
     0.8782   0.8833   0.9055   0.9300   0.9524   0.9659   0.9780   1.0103
     1.0564   1.0658   1.0827   1.1006   1.1164   1.1331   1.1524   1.1748
     1.2647   1.2896   1.3186   1.3395   1.3524   1.3629   1.3751   1.3926
     1.4035   1.4295   1.4364   1.4553   1.4767   1.4889   1.5263   1.5324
     1.5479   1.5695   1.5744   1.5903   1.6139   1.6270   1.6489   1.6750

          k = 0.3706-0.3659-0.3708 (311385 PWs)   bands (ev):

   -17.9719 -17.9122 -17.9016 -17.8729 -17.8585 -17.8518 -17.8498 -17.8077
   -15.7467 -15.7340 -15.6855 -15.6498 -15.6402 -15.6259 -15.6224 -15.5637
   -14.3533 -14.3436 -14.3162 -14.3127 -14.3102 -14.3065 -14.3027 -14.2981
   -14.2870 -14.2758 -14.2741 -14.2708 -14.2700 -14.2698 -14.2662 -14.2661
   -14.2615 -14.2609 -14.2586 -14.2577 -14.2548 -14.2502 -14.2428 -14.2421
   -14.2396 -14.2392 -14.2369 -14.2363 -14.2346 -14.2327 -14.2325 -14.2279
   -14.2231 -14.2174 -14.2157 -14.2142 -14.2090 -14.2068 -14.2030 -14.2008
    -9.7873  -9.7567  -9.7336  -9.7249  -9.7069  -9.6781  -9.6478  -9.6138
    -9.4830  -9.4396  -9.4192  -9.4110  -9.3876  -9.3351  -9.3278  -9.2934
    -9.2475  -9.1773  -9.1601  -9.1329  -9.1093  -9.0927  -9.0852  -9.0652
    -9.0357  -9.0194  -9.0008  -8.9814  -8.9647  -8.9545  -8.9402  -8.9054
    -7.8124  -7.7498  -7.6955  -7.6829  -7.6680  -7.6612  -7.6589  -7.6314
    -7.1182  -7.1048  -7.0941  -7.0464  -7.0423  -7.0209  -7.0146  -6.9431
    -5.5551  -5.4790  -5.4220  -5.3916  -5.3805  -5.3613  -5.3525  -5.3317
    -5.3236  -5.3152  -5.2950  -5.2822  -5.2053  -5.1673  -5.1548  -5.0112
    -3.9035  -3.8719  -3.8509  -3.8336  -3.8110  -3.8043  -3.7896  -3.7671
    -3.3431  -3.3246  -3.3107  -3.2727  -3.2701  -3.2620  -3.2549  -3.2070
    -0.5644  -0.4953  -0.4600  -0.4129  -0.4021  -0.3580  -0.3367  -0.3221
    -0.3080  -0.2738  -0.2279  -0.2070  -0.1837  -0.1555  -0.1293  -0.1058
    -0.0888  -0.0548  -0.0389   0.0139   0.1019   0.1439   0.1836   0.2110
     0.2600   0.2817   0.2987   0.3233   0.3536   0.3707   0.3910   0.4490
     0.6485   0.6766   0.7024   0.7372   0.7591   0.7980   0.8026   0.8522
     0.8636   0.8844   0.9022   0.9357   0.9488   0.9650   0.9826   1.0056
     1.0561   1.0647   1.0789   1.1071   1.1137   1.1363   1.1490   1.1876
     1.2640   1.2887   1.3231   1.3337   1.3537   1.3613   1.3745   1.3929
     1.4117   1.4177   1.4405   1.4589   1.4842   1.4956   1.5216   1.5321
     1.5382   1.5558   1.5751   1.5937   1.6155   1.6250   1.6554   1.6734

     highest occupied level (ev):     2.0906

!    total energy              =  -16707.46951413 Ry
     Harris-Foulkes estimate   =  -16707.46951414 Ry
     estimated scf accuracy    <          5.3E-10 Ry

     total all-electron energy =   -678114.529199 Ry

     The total energy is the sum of the following terms:

     one-electron contribution =    -950.65996986 Ry
     hartree contribution      =     674.63686893 Ry
     xc contribution           =    -795.78684598 Ry
     ewald contribution        =   -1217.03404819 Ry
     DFT-D3 Dispersion         =      -0.64425187 Ry
     one-center paw contrib.   =  -14417.98126718 Ry

     convergence has been achieved in  10 iterations

     Forces acting on atoms (cartesian axes, Ry/au):

     atom    1 type  1   force =    -0.00017693   -0.00015406    0.00004235
     atom    2 type  1   force =    -0.00058150    0.00001582    0.00013758
     atom    3 type  1   force =     0.00027713   -0.00007346   -0.00022845
     atom    4 type  1   force =    -0.00000885    0.00014808    0.00013906
     atom    5 type  1   force =    -0.00031217   -0.00016898    0.00004566
     atom    6 type  1   force =     0.00031414    0.00005420    0.00022019
     atom    7 type  1   force =     0.00007982    0.00013042   -0.00030375
     atom    8 type  1   force =     0.00006796    0.00012473   -0.00003765
     atom    9 type  2   force =     0.00006715    0.00021089   -0.00026351
     atom   10 type  2   force =     0.00019852   -0.00004788   -0.00025260
     atom   11 type  2   force =     0.00013912    0.00005077   -0.00020964
     atom   12 type  2   force =     0.00013625   -0.00029237    0.00012118
     atom   13 type  2   force =    -0.00023871    0.00016436   -0.00006780
     atom   14 type  2   force =    -0.00014459   -0.00002384    0.00004382
     atom   15 type  2   force =    -0.00015550   -0.00020901   -0.00017941
     atom   16 type  2   force =    -0.00008600   -0.00015402    0.00019781
     atom   17 type  2   force =     0.00029868    0.00013614   -0.00013090
     atom   18 type  2   force =     0.00057081    0.00007225   -0.00020704
     atom   19 type  2   force =    -0.00012187    0.00006134    0.00014798
     atom   20 type  2   force =    -0.00032588    0.00003307   -0.00011572
     atom   21 type  2   force =    -0.00000961    0.00013492    0.00001775
     atom   22 type  2   force =     0.00032362   -0.00020552    0.00012086
     atom   23 type  2   force =    -0.00053352   -0.00011402   -0.00004628
     atom   24 type  2   force =    -0.00012516   -0.00005445   -0.00020436
     atom   25 type  2   force =    -0.00019281    0.00010173   -0.00012364
     atom   26 type  2   force =     0.00003422    0.00009936    0.00060085
     atom   27 type  2   force =    -0.00013206    0.00013123   -0.00003893
     atom   28 type  2   force =     0.00010190   -0.00000217    0.00020511
     atom   29 type  2   force =     0.00001116    0.00012642    0.00001880
     atom   30 type  2   force =    -0.00014911    0.00004717    0.00008241
     atom   31 type  2   force =    -0.00003469   -0.00013908   -0.00017033
     atom   32 type  2   force =     0.00000230    0.00032029   -0.00007782
     atom   33 type  3   force =     0.00030427   -0.00017002   -0.00055829
     atom   34 type  3   force =     0.00030478   -0.00010480   -0.00015310
     atom   35 type  3   force =    -0.00079635   -0.00080762   -0.00048122
     atom   36 type  3   force =    -0.00092985   -0.00062121   -0.00037262
     atom   37 type  3   force =     0.00071419    0.00008466    0.00056157
     atom   38 type  3   force =     0.00025451   -0.00104990    0.00132152
     atom   39 type  3   force =     0.00001945    0.00012637    0.00073116
     atom   40 type  3   force =    -0.00052581   -0.00084695   -0.00003256
     atom   41 type  4   force =     0.00029261    0.00020439    0.00039268
     atom   42 type  4   force =     0.00009256    0.00016478    0.00022884
     atom   43 type  4   force =     0.00038834    0.00067168    0.00064254
     atom   44 type  4   force =     0.00069133   -0.00011111    0.00009269
     atom   45 type  4   force =    -0.00078679   -0.00013467   -0.00040698
     atom   46 type  4   force =     0.00044764   -0.00002116   -0.00036309
     atom   47 type  4   force =    -0.00045340    0.00015681   -0.00021143
     atom   48 type  4   force =     0.00045664    0.00003986   -0.00003244
     atom   49 type  4   force =     0.00010172    0.00025781    0.00019853
     atom   50 type  4   force =     0.00003300   -0.00011110    0.00016420
     atom   51 type  4   force =     0.00027408   -0.00017667   -0.00022423
     atom   52 type  4   force =     0.00016646    0.00031653    0.00028232
     atom   53 type  4   force =     0.00000501    0.00072202    0.00044911
     atom   54 type  4   force =    -0.00064635   -0.00017608   -0.00021658
     atom   55 type  4   force =     0.00030099   -0.00022176   -0.00023267
     atom   56 type  4   force =     0.00010986    0.00022478    0.00035721
     atom   57 type  5   force =     0.00014693   -0.00031562    0.00043626
     atom   58 type  5   force =     0.00024740   -0.00043684   -0.00025940
     atom   59 type  5   force =     0.00019790   -0.00030408    0.00064640
     atom   60 type  5   force =     0.00039331    0.00001262    0.00020874
     atom   61 type  5   force =     0.00000386   -0.00033698   -0.00025633
     atom   62 type  5   force =    -0.00005925   -0.00018978   -0.00026834
     atom   63 type  5   force =    -0.00086829    0.00038120    0.00027002
     atom   64 type  5   force =     0.00007072    0.00004356    0.00041929
     atom   65 type  5   force =     0.00077313   -0.00089884    0.00020034
     atom   66 type  5   force =     0.00038945   -0.00015827   -0.00000949
     atom   67 type  5   force =     0.00081369   -0.00052246   -0.00132940
     atom   68 type  5   force =     0.00005367   -0.00028737   -0.00011216
     atom   69 type  5   force =    -0.00010020    0.00004546   -0.00043850
     atom   70 type  5   force =     0.00064488   -0.00044443   -0.00015586
     atom   71 type  5   force =     0.00045987   -0.00020296   -0.00032369
     atom   72 type  5   force =     0.00058540   -0.00025668   -0.00032568
     atom   73 type  5   force =     0.00018460    0.00060273    0.00089739
     atom   74 type  5   force =     0.00038346    0.00030530    0.00040225
     atom   75 type  5   force =     0.00003963    0.00025394    0.00020579
     atom   76 type  5   force =    -0.00054287    0.00033318    0.00013350
     atom   77 type  5   force =    -0.00103541   -0.00053585   -0.00076705
     atom   78 type  5   force =    -0.00007562    0.00053820    0.00054518
     atom   79 type  5   force =    -0.00105274    0.00039160    0.00057484
     atom   80 type  5   force =     0.00006422    0.00062413   -0.00065836
     atom   81 type  5   force =    -0.00047834   -0.00050990   -0.00137456
     atom   82 type  5   force =    -0.00073470   -0.00035727   -0.00080158
     atom   83 type  5   force =    -0.00057215    0.00006787   -0.00010443
     atom   84 type  5   force =    -0.00022840    0.00008669   -0.00012949
     atom   85 type  5   force =     0.00009356   -0.00068441    0.00018989
     atom   86 type  5   force =    -0.00011966   -0.00000176   -0.00016814
     atom   87 type  5   force =     0.00094069   -0.00029423   -0.00024876
     atom   88 type  5   force =    -0.00041793   -0.00003070    0.00042376
     atom   89 type  5   force =    -0.00108354    0.00136660   -0.00042096
     atom   90 type  5   force =    -0.00070527    0.00075322    0.00036624
     atom   91 type  5   force =     0.00005506    0.00095208    0.00115189
     atom   92 type  5   force =     0.00023692    0.00006142   -0.00051411
     atom   93 type  5   force =     0.00072234   -0.00021968    0.00087372
     atom   94 type  5   force =     0.00001610    0.00026636   -0.00050493
     atom   95 type  5   force =     0.00065512    0.00033341   -0.00021427
     atom   96 type  5   force =    -0.00021024    0.00062758   -0.00018074

     Total force =     0.007058     Total SCF correction =     0.000065


     Computing stress (Cartesian axis) and pressure

          total   stress  (Ry/bohr**3)                   (kbar)     P=   -0.31
  -0.00000231   0.00000016  -0.00000671         -0.34      0.02     -0.99
   0.00000016  -0.00000233   0.00000136          0.02     -0.34      0.20
  -0.00000671   0.00000136  -0.00000172         -0.99      0.20     -0.25


     number of scf cycles    =  21
     number of bfgs steps    =  20

     enthalpy old            =  -16707.4694553341 Ry
     enthalpy new            =  -16707.4695141348 Ry

     CASE: enthalpy_new < enthalpy_old

     new trust radius        =       0.0204286974 bohr
     new conv_thr            =       0.0000000010 Ry

     new unit-cell volume =  14004.83796 a.u.^3 (  2075.30285 Ang^3 )
     density =      4.05659 g/cm^3

CELL_PARAMETERS (alat= 23.71984200)
   1.012133189   0.000000000   0.000000000
   0.000000000   1.025237195   0.000000000
   0.000000000   0.000000000   1.011301596

ATOMIC_POSITIONS (crystal)
Pb      -0.012184883  -0.023703785   0.007694811
Pb       0.486562316  -0.018584253   0.002195906
Pb      -0.014434749   0.481905659   0.010074189
Pb       0.023118566  -0.018457295   0.512037390
Pb       0.487422928   0.482738704  -0.003885306
Pb       0.020548614   0.477819939   0.506012134
Pb       0.525743939  -0.017907393   0.503268970
Pb       0.520145521   0.485280784   0.500178068
I        0.236690457  -0.009544188  -0.041047878
I        0.736930807  -0.004407352   0.043487426
I        0.235274619   0.487847805   0.059248320
I        0.271605920  -0.030150771   0.526367809
I        0.736421003   0.489694439  -0.052732592
I        0.272251771   0.473862958   0.460640864
I        0.771968883  -0.017236561   0.480262254
I        0.772637344   0.461824289   0.539675023
I       -0.029230372   0.232979172   0.008181627
I        0.470247892   0.232139949   0.008658627
I       -0.030819217   0.732569296   0.002335499
I        0.042953298   0.229762749   0.503624712
I        0.469962694   0.732492649  -0.000917165
I        0.024742920   0.728876522   0.511609482
I        0.532763878   0.231217017   0.503992799
I        0.541924308   0.731431897   0.504535242
I        0.035666812  -0.033059769   0.258382873
I        0.469612485  -0.021573718   0.253448445
I       -0.050881158   0.483712797   0.258086555
I       -0.041478591  -0.018535486   0.758499089
I        0.552031911   0.482907429   0.247110748
I        0.050789839   0.478037696   0.758240874
I        0.533033611  -0.024032882   0.755408499
I        0.456577174   0.468854106   0.748300660
C        0.236122776   0.251149086   0.251015070
C        0.763159692   0.254522093   0.276998718
C        0.245894613   0.734327045   0.294015623
C        0.258463413   0.251224241   0.733730773
C        0.750828646   0.792422860   0.252190879
C        0.254144688   0.772347709   0.747159662
C        0.733573379   0.252501198   0.755941654
C        0.758883762   0.751057855   0.735402110
N        0.203539551   0.197131276   0.169531778
N        0.692829578   0.235453324   0.203494431
N        0.163843473   0.679303184   0.265139159
N        0.187513654   0.234143337   0.807029681
N        0.664787741   0.743274174   0.223715688
N        0.176144517   0.731660083   0.801162846
N        0.705001033   0.202495634   0.841499583
N        0.688557625   0.743626290   0.810949276
N        0.314094767   0.224403666   0.313457069
N        0.847317387   0.197897538   0.294785255
N        0.341797245   0.720256373   0.257999331
N        0.339249181   0.190578939   0.714206299
N        0.840341604   0.748436316   0.277786025
N        0.328634551   0.718549280   0.700675069
N        0.810298941   0.223930670   0.693027649
N        0.836060141   0.684787965   0.720595502
H        0.196011598   0.324317248   0.268098441
H        0.750723723   0.322594153   0.327025016
H        0.233917112   0.796032931   0.352099790
H        0.249311112   0.320910452   0.685439439
H        0.747658544   0.877090331   0.254940758
H        0.257276895   0.856850223   0.740371193
H        0.690980482   0.323413934   0.735457280
H        0.752874413   0.816730730   0.681084453
H        0.237268164   0.128743157   0.146818672
H        0.698607350   0.173124069   0.153463265
H        0.169444784   0.619206392   0.212269687
H        0.190691718   0.170915852   0.855993174
H        0.657075144   0.663933276   0.222307861
H        0.162918518   0.653270500   0.805784944
H        0.740617156   0.135877852   0.866860794
H        0.689064402   0.683793140   0.864185805
H        0.141520915   0.222598188   0.124598627
H        0.630443141   0.284773337   0.194966007
H        0.094202458   0.690264579   0.303227094
H        0.127232115   0.285878076   0.816048144
H        0.600652096   0.786223796   0.203325075
H        0.122020880   0.778066072   0.837168850
H        0.643116846   0.228662777   0.885789438
H        0.629768969   0.797592256   0.815640616
H        0.356812524   0.157669712   0.303500449
H        0.865586555   0.132906051   0.252574448
H        0.359598339   0.665781235   0.202407389
H        0.354073248   0.124243010   0.755641306
H        0.853526847   0.669803341   0.275093771
H        0.336063264   0.639558669   0.708037846
H        0.854149201   0.158233776   0.705986013
H        0.846149612   0.620818633   0.766957598
H        0.333814040   0.271199160   0.375305875
H        0.898514323   0.217120946   0.354073030
H        0.399610204   0.770880018   0.279733102
H        0.391960482   0.209999997   0.656271658
H        0.902360474   0.795638183   0.295947670
H        0.385493574   0.755118062   0.657400776
H        0.826016718   0.268353258   0.628219391
H        0.888252472   0.695892001   0.660073378



     Writing output data file FAPbI83_vcrelax7.save/
     NEW-OLD atomic charge density approx. for the potential
     extrapolated charge  432.18550, renormalised to  432.00000

     total cpu time spent up to now is   597302.3 secs

     Self-consistent Calculation

     iteration #  1     ecut=   120.00 Ry     beta= 0.70
     Davidson diagonalization with overlap
     ethr =  1.00E-06,  avg # of iterations =  4.0

     Threshold (ethr) on eigenvalues was too large:
     Diagonalizing with lowered threshold

     Davidson diagonalization with overlap
     ethr =  9.07E-08,  avg # of iterations =  2.0

     total cpu time spent up to now is   601813.9 secs

     total energy              =  -16707.46928812 Ry
     Harris-Foulkes estimate   =  -16707.16372115 Ry
     estimated scf accuracy    <       0.00038689 Ry

     iteration #  2     ecut=   120.00 Ry     beta= 0.70
     Davidson diagonalization with overlap
     ethr =  8.96E-08,  avg # of iterations =  3.2

     total cpu time spent up to now is   604719.5 secs

     total energy              =  -16707.46952071 Ry
     Harris-Foulkes estimate   =  -16707.46972041 Ry
     estimated scf accuracy    <       0.00043905 Ry

     iteration #  3     ecut=   120.00 Ry     beta= 0.70
     Davidson diagonalization with overlap
