
     Program PWSCF v.6.4 starts on  2May2020 at 21:42:12 

     This program is part of the open-source Quantum ESPRESSO suite
     for quantum simulation of materials; please cite
         "P. Giannozzi et al., J. Phys.:Condens. Matter 21 395502 (2009);
         "P. Giannozzi et al., J. Phys.:Condens. Matter 29 465901 (2017);
          URL http://www.quantum-espresso.org", 
     in publications or presentations arising from this work. More details at
     http://www.quantum-espresso.org/quote

     Parallel version (MPI), running on    32 processors

     MPI processes distributed on     1 nodes
     R & G space division:  proc/nbgrp/npool/nimage =      32
     Waiting for input...
     Reading input from standard input
     Message from routine read_cards :
     DEPRECATED: no units specified in CELL_PARAMETERS card

     Current dimensions of program PWSCF are:
     Max number of different atomic species (ntypx) = 10
     Max number of k-points (npk) =  40000
     Max angular momentum in pseudopotentials (lmaxx) =  3
               file Pb.pbe-dn-kjpaw_psl.1.0.0.UPF: wavefunction(s)  6S 6P 5D renormalized
               file I.pbe-n-kjpaw_psl.1.0.0.UPF: wavefunction(s)  5S renormalized
               file C.pbe-n-kjpaw_psl.1.0.0.UPF: wavefunction(s)  2S 2P renormalized
               file N.pbe-n-kjpaw_psl.1.0.0.UPF: wavefunction(s)  2S renormalized
               file H.pbe-kjpaw_psl.1.0.0.UPF: wavefunction(s)  1S renormalized

     --------------------------------------------
     Parameters for DFT-D3 Dispersion Correction:
     --------------------------------------------
       Reference C6 values for interpolation: 

         atom   Coordination number   C6
         H          0.912             6.05
         H          0.000            15.18
         C          0.000            98.23
         C          0.987            86.49
         C          1.998            58.72
         C          2.999            51.56
         C          3.984            36.41
         N          0.000            50.54
         N          0.994            44.25
         N          2.014            39.35
         N          2.990            31.16
         I          0.000           703.93
         I          0.997           717.00
         Pb         0.000          1477.63
         Pb         0.938          1266.00
         Pb         1.936          1088.91
         Pb         2.908          1048.37
         Pb         3.910           910.57

       Values used:

         atom   Coordination number  R0_AB[au]  C6      C8
         Pb         4.791            4.041    910.57 144158.44
         Pb         4.804            4.041    910.57 144158.40
         Pb         4.721            4.041    910.57 144158.68
         Pb         4.835            4.041    910.57 144158.34
         Pb         4.699            4.041    910.58 144158.79
         Pb         4.780            4.041    910.57 144158.47
         Pb         4.860            4.041    910.57 144158.30
         Pb         4.728            4.041    910.57 144158.65
         I          1.912            3.532    717.00  65855.99
         I          1.930            3.532    717.00  65855.99
         I          1.868            3.532    717.00  65855.98
         I          1.956            3.532    717.00  65856.00
         I          1.794            3.532    717.00  65855.97
         I          1.854            3.532    717.00  65855.98
         I          1.938            3.532    717.00  65855.99
         I          1.886            3.532    717.00  65855.99
         I          1.875            3.532    717.00  65855.99
         I          1.877            3.532    717.00  65855.99
         I          1.946            3.532    717.00  65855.99
         I          1.913            3.532    717.00  65855.99
         I          1.951            3.532    717.00  65856.00
         I          2.018            3.532    717.00  65856.00
         I          1.950            3.532    717.00  65855.99
         I          1.953            3.532    717.00  65856.00
         I          1.920            3.532    717.00  65855.99
         I          1.998            3.532    717.00  65856.00
         I          1.950            3.532    717.00  65855.99
         I          1.971            3.532    717.00  65856.00
         I          1.853            3.532    717.00  65855.98
         I          1.917            3.532    717.00  65855.99
         I          1.975            3.532    717.00  65856.00
         I          1.932            3.532    717.00  65855.99
         C          3.067            2.750     51.06   1476.75
         C          3.070            2.750     51.05   1476.46
         C          3.068            2.750     51.06   1476.64
         C          3.071            2.750     51.04   1476.20
         C          3.075            2.750     51.02   1475.59
         C          3.066            2.750     51.07   1477.02
         C          3.068            2.750     51.06   1476.74
         C          3.069            2.750     51.05   1476.59
         N          3.098            2.478     31.24    689.08
         N          3.097            2.478     31.24    689.10
         N          3.112            2.478     31.23    688.92
         N          3.101            2.478     31.23    689.05
         N          3.103            2.478     31.23    689.02
         N          3.106            2.478     31.23    688.99
         N          3.099            2.478     31.24    689.07
         N          3.109            2.478     31.23    688.96
         N          3.098            2.478     31.24    689.09
         N          3.102            2.478     31.23    689.04
         N          3.109            2.478     31.23    688.95
         N          3.104            2.478     31.23    689.01
         N          3.109            2.478     31.23    688.96
         N          3.103            2.478     31.23    689.03
         N          3.100            2.478     31.23    689.06
         N          3.109            2.478     31.23    688.96
         H          1.022            2.062      6.16     74.49
         H          1.022            2.062      6.16     74.50
         H          1.017            2.062      6.17     74.55
         H          1.016            2.062      6.17     74.55
         H          1.023            2.062      6.16     74.48
         H          1.019            2.062      6.17     74.53
         H          1.021            2.062      6.16     74.50
         H          1.015            2.062      6.17     74.56
         H          1.026            2.062      6.16     74.46
         H          1.035            2.062      6.15     74.37
         H          1.028            2.062      6.16     74.44
         H          1.052            2.062      6.14     74.24
         H          1.060            2.062      6.14     74.18
         H          1.047            2.062      6.14     74.27
         H          1.033            2.062      6.15     74.39
         H          1.059            2.062      6.14     74.18
         H          1.042            2.062      6.15     74.31
         H          1.036            2.062      6.15     74.37
         H          1.045            2.062      6.15     74.29
         H          1.046            2.062      6.15     74.29
         H          1.042            2.062      6.15     74.31
         H          1.036            2.062      6.15     74.36
         H          1.037            2.062      6.15     74.36
         H          1.043            2.062      6.15     74.31
         H          1.036            2.062      6.15     74.36
         H          1.024            2.062      6.16     74.47
         H          1.025            2.062      6.16     74.46
         H          1.026            2.062      6.16     74.46
         H          1.056            2.062      6.14     74.20
         H          1.052            2.062      6.14     74.24
         H          1.038            2.062      6.15     74.35
         H          1.022            2.062      6.16     74.49
         H          1.044            2.062      6.15     74.30
         H          1.040            2.062      6.15     74.33
         H          1.052            2.062      6.14     74.24
         H          1.070            2.062      6.13     74.11
         H          1.053            2.062      6.14     74.23
         H          1.045            2.062      6.15     74.29
         H          1.032            2.062      6.15     74.40
         H          1.095            2.062      6.12     73.95

         Molecular C6 ( Ry / a.u.^6 ) =   1270673.83


     Subspace diagonalization in iterative solution of the eigenvalue problem:
     a serial algorithm will be used


     Parallelization info
     --------------------
     sticks:   dense  smooth     PW     G-vecs:    dense   smooth      PW
     Min         696     696    179                77826    77826   10187
     Max         698     698    180                77828    77828   10192
     Sum       22275   22275   5741              2490441  2490441  326025



     bravais-lattice index     =            0
     lattice parameter (alat)  =      23.7198  a.u.
     unit-cell volume          =   14024.0682 (a.u.)^3
     number of atoms/cell      =           96
     number of atomic types    =            5
     number of electrons       =       432.00
     number of Kohn-Sham states=          216
     kinetic-energy cutoff     =     120.0000  Ry
     charge density cutoff     =     480.0000  Ry
     convergence threshold     =      1.0E-07
     mixing beta               =       0.7000
     number of iterations used =            8  plain     mixing
     Exchange-correlation      = SLA PW PBX PBC ( 1  4  3  4 0 0)
     nstep                     =          100


     celldm(1)=  23.719842  celldm(2)=   0.000000  celldm(3)=   0.000000
     celldm(4)=   0.000000  celldm(5)=   0.000000  celldm(6)=   0.000000

     crystal axes: (cart. coord. in units of alat)
               a(1) = (   1.013813   0.000000   0.000000 )  
               a(2) = (   0.000000   1.022621   0.000000 )  
               a(3) = (   0.000000   0.000000   1.013599 )  

     reciprocal axes: (cart. coord. in units 2 pi/alat)
               b(1) = (  0.986376  0.000000  0.000000 )  
               b(2) = (  0.000000  0.977879  0.000000 )  
               b(3) = (  0.000000  0.000000  0.986584 )  


     PseudoPot. # 1 for Pb read from file:
     ../Pseudopotential/Pb.pbe-dn-kjpaw_psl.1.0.0.UPF
     MD5 check sum: 684fc8fbce61a260853528575e4d9ab7
     Pseudo is Projector augmented-wave + core cor, Zval = 14.0
     Generated using "atomic" code by A. Dal Corso v.6.3
     Shape of augmentation charge: PSQ
     Using radial grid of 1281 points,  6 beta functions with: 
                l(1) =   0
                l(2) =   0
                l(3) =   1
                l(4) =   1
                l(5) =   2
                l(6) =   2
     Q(r) pseudized with 0 coefficients 


     PseudoPot. # 2 for I  read from file:
     ../Pseudopotential/I.pbe-n-kjpaw_psl.1.0.0.UPF
     MD5 check sum: cd3d296c3308a581e1559a0c8a554cb5
     Pseudo is Projector augmented-wave + core cor, Zval =  7.0
     Generated using "atomic" code by A. Dal Corso v.6.3
     Shape of augmentation charge: PSQ
     Using radial grid of 1247 points,  6 beta functions with: 
                l(1) =   0
                l(2) =   0
                l(3) =   1
                l(4) =   1
                l(5) =   2
                l(6) =   2
     Q(r) pseudized with 0 coefficients 


     PseudoPot. # 3 for C  read from file:
     ../Pseudopotential/C.pbe-n-kjpaw_psl.1.0.0.UPF
     MD5 check sum: 5f16ad9a65e90284d1d834d4ab3b0f7d
     Pseudo is Projector augmented-wave + core cor, Zval =  4.0
     Generated using "atomic" code by A. Dal Corso v.6.3
     Shape of augmentation charge: PSQ
     Using radial grid of 1073 points,  4 beta functions with: 
                l(1) =   0
                l(2) =   0
                l(3) =   1
                l(4) =   1
     Q(r) pseudized with 0 coefficients 


     PseudoPot. # 4 for N  read from file:
     ../Pseudopotential/N.pbe-n-kjpaw_psl.1.0.0.UPF
     MD5 check sum: 14c48229446f9f2d411169a3abcbc3fa
     Pseudo is Projector augmented-wave + core cor, Zval =  5.0
     Generated using "atomic" code by A. Dal Corso v.6.3
     Shape of augmentation charge: PSQ
     Using radial grid of 1085 points,  4 beta functions with: 
                l(1) =   0
                l(2) =   0
                l(3) =   1
                l(4) =   1
     Q(r) pseudized with 0 coefficients 


     PseudoPot. # 5 for H  read from file:
     ../Pseudopotential/H.pbe-kjpaw_psl.1.0.0.UPF
     MD5 check sum: d81a744832360e4a8af0b0b5b123bc2a
     Pseudo is Projector augmented-wave, Zval =  1.0
     Generated using "atomic" code by A. Dal Corso v.6.3MaX
     Shape of augmentation charge: PSQ
     Using radial grid of  929 points,  2 beta functions with: 
                l(1) =   0
                l(2) =   0
     Q(r) pseudized with 0 coefficients 


     atomic species   valence    mass     pseudopotential
        Pb            14.00   207.97600     Pb( 1.00)
        I              7.00   126.90400     I ( 1.00)
        C              4.00    12.00000     C ( 1.00)
        N              5.00    14.00300     N ( 1.00)
        H              1.00     1.00700     H ( 1.00)

     No symmetry found



   Cartesian axes

     site n.     atom                  positions (alat units)
         1           Pb  tau(   1) = (  -0.0123243  -0.0253673  -0.0039257  )
         2           Pb  tau(   2) = (   0.4969502  -0.0296790   0.0067358  )
         3           Pb  tau(   3) = (  -0.0083924   0.4883052   0.0027643  )
         4           Pb  tau(   4) = (   0.0206823  -0.0194130   0.5088274  )
         5           Pb  tau(   5) = (   0.4909595   0.4861123  -0.0007434  )
         6           Pb  tau(   6) = (   0.0195998   0.4913970   0.5101236  )
         7           Pb  tau(   7) = (   0.5267079  -0.0199642   0.5141795  )
         8           Pb  tau(   8) = (   0.5266351   0.4956282   0.5101856  )
         9           I   tau(   9) = (   0.2402586  -0.0042664  -0.0297219  )
        10           I   tau(  10) = (   0.7471160  -0.0176060   0.0413511  )
        11           I   tau(  11) = (   0.2430979   0.4926547   0.0662038  )
        12           I   tau(  12) = (   0.2737493  -0.0219109   0.5300259  )
        13           I   tau(  13) = (   0.7493859   0.4951803  -0.0458734  )
        14           I   tau(  14) = (   0.2767723   0.4978670   0.4650340  )
        15           I   tau(  15) = (   0.7800787  -0.0049434   0.4809914  )
        16           I   tau(  16) = (   0.7843474   0.4796629   0.5493144  )
        17           I   tau(  17) = (  -0.0318378   0.2355968   0.0028685  )
        18           I   tau(  18) = (   0.4760866   0.2315204   0.0112385  )
        19           I   tau(  19) = (  -0.0086436   0.7459328   0.0028930  )
        20           I   tau(  20) = (   0.0458596   0.2380548   0.5093206  )
        21           I   tau(  21) = (   0.4773494   0.7431410  -0.0034297  )
        22           I   tau(  22) = (   0.0172583   0.7485333   0.5162350  )
        23           I   tau(  23) = (   0.5424866   0.2387837   0.5117753  )
        24           I   tau(  24) = (   0.5499514   0.7504316   0.5237050  )
        25           I   tau(  25) = (   0.0281552  -0.0328600   0.2545731  )
        26           I   tau(  26) = (   0.4812608  -0.0359212   0.2610026  )
        27           I   tau(  27) = (  -0.0360986   0.4902348   0.2589205  )
        28           I   tau(  28) = (  -0.0331507  -0.0307083   0.7604913  )
        29           I   tau(  29) = (   0.5553774   0.4907518   0.2530392  )
        30           I   tau(  30) = (   0.0504299   0.4879123   0.7662250  )
        31           I   tau(  31) = (   0.5412361  -0.0274623   0.7674677  )
        32           I   tau(  32) = (   0.4662978   0.4796575   0.7604823  )
        33           C   tau(  33) = (   0.2486439   0.2593799   0.2659438  )
        34           C   tau(  34) = (   0.7664220   0.2684313   0.2649938  )
        35           C   tau(  35) = (   0.2543700   0.7699152   0.2757994  )
        36           C   tau(  36) = (   0.2608004   0.2575984   0.7429662  )
        37           C   tau(  37) = (   0.7672336   0.8034642   0.2606844  )
        38           C   tau(  38) = (   0.2590778   0.7952835   0.7572256  )
        39           C   tau(  39) = (   0.7632640   0.2609408   0.7663016  )
        40           C   tau(  40) = (   0.7639501   0.7684695   0.7513780  )
        41           N   tau(  41) = (   0.1878694   0.2106831   0.1956733  )
        42           N   tau(  42) = (   0.6875802   0.2199160   0.2158356  )
        43           N   tau(  43) = (   0.1637723   0.7178270   0.2756837  )
        44           N   tau(  44) = (   0.1915345   0.2382753   0.8191091  )
        45           N   tau(  45) = (   0.6745273   0.7551845   0.2625167  )
        46           N   tau(  46) = (   0.1722191   0.7534850   0.7979220  )
        47           N   tau(  47) = (   0.7014067   0.2114847   0.8348090  )
        48           N   tau(  48) = (   0.6862696   0.7382903   0.8144264  )
        49           N   tau(  49) = (   0.3229366   0.2126722   0.3228983  )
        50           N   tau(  50) = (   0.8537817   0.2219448   0.2988209  )
        51           N   tau(  51) = (   0.3472959   0.7289621   0.2500900  )
        52           N   tau(  52) = (   0.3485243   0.2030940   0.7268278  )
        53           N   tau(  53) = (   0.8602839   0.7565065   0.2518136  )
        54           N   tau(  54) = (   0.3425854   0.7406704   0.7260182  )
        55           N   tau(  55) = (   0.8265973   0.2128144   0.6984568  )
        56           N   tau(  56) = (   0.8498479   0.7121654   0.7316735  )
        57           H   tau(  57) = (   0.2378231   0.3449295   0.2782597  )
        58           H   tau(  58) = (   0.7581748   0.3540504   0.2784845  )
        59           H   tau(  59) = (   0.2532124   0.8537862   0.2989335  )
        60           H   tau(  60) = (   0.2439753   0.3231841   0.6882849  )
        61           H   tau(  61) = (   0.7673971   0.8900446   0.2674517  )
        62           H   tau(  62) = (   0.2626513   0.8817994   0.7494871  )
        63           H   tau(  63) = (   0.7622326   0.3478815   0.7667800  )
        64           H   tau(  64) = (   0.7567087   0.8460084   0.7123449  )
        65           H   tau(  65) = (   0.1918487   0.1308745   0.1803477  )
        66           H   tau(  66) = (   0.6909695   0.1417931   0.1930454  )
        67           H   tau(  67) = (   0.1571983   0.6387397   0.2578342  )
        68           H   tau(  68) = (   0.2013515   0.1782857   0.8737025  )
        69           H   tau(  69) = (   0.6635117   0.6742200   0.2588705  )
        70           H   tau(  70) = (   0.1603825   0.6730620   0.8051580  )
        71           H   tau(  71) = (   0.6942968   0.1305065   0.8362850  )
        72           H   tau(  72) = (   0.6885292   0.6680235   0.8563667  )
        73           H   tau(  73) = (   0.1336638   0.2515579   0.1506615  )
        74           H   tau(  74) = (   0.6240652   0.2626729   0.1885781  )
        75           H   tau(  75) = (   0.0982126   0.7546117   0.3062383  )
        76           H   tau(  76) = (   0.1262371   0.2861700   0.8256112  )
        77           H   tau(  77) = (   0.6084228   0.8007313   0.2745781  )
        78           H   tau(  78) = (   0.1120963   0.8014088   0.8239039  )
        79           H   tau(  79) = (   0.6553863   0.2537906   0.8868392  )
        80           H   tau(  80) = (   0.6226735   0.7872170   0.8267954  )
        81           H   tau(  81) = (   0.3404375   0.1335118   0.3151401  )
        82           H   tau(  82) = (   0.8665271   0.1418234   0.2934741  )
        83           H   tau(  83) = (   0.3559536   0.6527055   0.2234855  )
        84           H   tau(  84) = (   0.3710575   0.1405268   0.7735354  )
        85           H   tau(  85) = (   0.8704544   0.6757732   0.2456562  )
        86           H   tau(  86) = (   0.3493932   0.6595752   0.7332907  )
        87           H   tau(  87) = (   0.8361842   0.1319335   0.6963164  )
        88           H   tau(  88) = (   0.8611513   0.6376629   0.7619755  )
        89           H   tau(  89) = (   0.3664886   0.2541036   0.3780534  )
        90           H   tau(  90) = (   0.9101119   0.2652160   0.3386069  )
        91           H   tau(  91) = (   0.4105639   0.7793551   0.2441775  )
        92           H   tau(  92) = (   0.3981975   0.2235034   0.6654114  )
        93           H   tau(  93) = (   0.9261031   0.8039987   0.2457569  )
        94           H   tau(  94) = (   0.4050471   0.7782056   0.6899394  )
        95           H   tau(  95) = (   0.8700278   0.2562847   0.6452993  )
        96           H   tau(  96) = (   0.9050080   0.7388938   0.6775826  )

     number of k points=    32
                       cart. coord. in units 2pi/alat
        k(    1) = (   0.1232970   0.1222349   0.1233229), wk =   0.0625000
        k(    2) = (   0.1232970   0.1222349   0.3699688), wk =   0.0625000
        k(    3) = (   0.1232970   0.3667047   0.1233229), wk =   0.0625000
        k(    4) = (   0.1232970   0.3667047   0.3699688), wk =   0.0625000
        k(    5) = (   0.3698909   0.1222349   0.1233229), wk =   0.0625000
        k(    6) = (   0.3698909   0.1222349   0.3699688), wk =   0.0625000
        k(    7) = (   0.3698909   0.3667047   0.1233229), wk =   0.0625000
        k(    8) = (   0.3698909   0.3667047   0.3699688), wk =   0.0625000
        k(    9) = (  -0.1232970  -0.1222349   0.1233229), wk =   0.0625000
        k(   10) = (  -0.1232970   0.1222349  -0.1233229), wk =   0.0625000
        k(   11) = (   0.1232970  -0.1222349  -0.1233229), wk =   0.0625000
        k(   12) = (  -0.1232970  -0.1222349   0.3699688), wk =   0.0625000
        k(   13) = (  -0.1232970   0.1222349  -0.3699688), wk =   0.0625000
        k(   14) = (   0.1232970  -0.1222349  -0.3699688), wk =   0.0625000
        k(   15) = (  -0.1232970  -0.3667047   0.1233229), wk =   0.0625000
        k(   16) = (  -0.1232970   0.3667047  -0.1233229), wk =   0.0625000
        k(   17) = (   0.1232970  -0.3667047  -0.1233229), wk =   0.0625000
        k(   18) = (  -0.1232970  -0.3667047   0.3699688), wk =   0.0625000
        k(   19) = (  -0.1232970   0.3667047  -0.3699688), wk =   0.0625000
        k(   20) = (   0.1232970  -0.3667047  -0.3699688), wk =   0.0625000
        k(   21) = (  -0.3698909  -0.1222349   0.1233229), wk =   0.0625000
        k(   22) = (  -0.3698909   0.1222349  -0.1233229), wk =   0.0625000
        k(   23) = (   0.3698909  -0.1222349  -0.1233229), wk =   0.0625000
        k(   24) = (  -0.3698909  -0.1222349   0.3699688), wk =   0.0625000
        k(   25) = (  -0.3698909   0.1222349  -0.3699688), wk =   0.0625000
        k(   26) = (   0.3698909  -0.1222349  -0.3699688), wk =   0.0625000
        k(   27) = (  -0.3698909  -0.3667047   0.1233229), wk =   0.0625000
        k(   28) = (  -0.3698909   0.3667047  -0.1233229), wk =   0.0625000
        k(   29) = (   0.3698909  -0.3667047  -0.1233229), wk =   0.0625000
        k(   30) = (  -0.3698909  -0.3667047   0.3699688), wk =   0.0625000
        k(   31) = (  -0.3698909   0.3667047  -0.3699688), wk =   0.0625000
        k(   32) = (   0.3698909  -0.3667047  -0.3699688), wk =   0.0625000

     Dense  grid:  2490441 G-vectors     FFT dimensions: ( 180, 180, 180)

     Estimated max dynamical RAM per process >       1.82 GB

     Estimated total dynamical RAM >      58.34 GB

     Initial potential from superposition of free atoms

     starting charge  431.97851, renormalised to  432.00000
     Starting wfcs are  304 randomized atomic wfcs
     Checking if some PAW data can be deallocated... 

     total cpu time spent up to now is     2735.2 secs

     Self-consistent Calculation

     iteration #  1     ecut=   120.00 Ry     beta= 0.70
     Davidson diagonalization with overlap
     ethr =  1.00E-02,  avg # of iterations =  2.0

     total cpu time spent up to now is     7267.1 secs

     total energy              =  -16704.98819292 Ry
     Harris-Foulkes estimate   =  -16709.26442015 Ry
     estimated scf accuracy    <       6.77983384 Ry

     iteration #  2     ecut=   120.00 Ry     beta= 0.70
     Davidson diagonalization with overlap
     ethr =  1.57E-03,  avg # of iterations =  4.0

     total cpu time spent up to now is    13277.4 secs

     total energy              =  -16706.52446721 Ry
     Harris-Foulkes estimate   =  -16708.61955162 Ry
     estimated scf accuracy    <       3.90530358 Ry

     iteration #  3     ecut=   120.00 Ry     beta= 0.70
     Davidson diagonalization with overlap
     ethr =  9.04E-04,  avg # of iterations =  3.0

     total cpu time spent up to now is    18029.2 secs

     total energy              =  -16707.39135124 Ry
     Harris-Foulkes estimate   =  -16707.45997070 Ry
     estimated scf accuracy    <       0.14879724 Ry

     iteration #  4     ecut=   120.00 Ry     beta= 0.70
     Davidson diagonalization with overlap
     ethr =  3.44E-05,  avg # of iterations =  4.0

     total cpu time spent up to now is    24291.3 secs

     total energy              =  -16707.43551280 Ry
     Harris-Foulkes estimate   =  -16707.45494631 Ry
     estimated scf accuracy    <       0.03867319 Ry

     iteration #  5     ecut=   120.00 Ry     beta= 0.70
     Davidson diagonalization with overlap
     ethr =  8.95E-06,  avg # of iterations =  3.0

     total cpu time spent up to now is    29427.8 secs

     total energy              =  -16707.44283885 Ry
     Harris-Foulkes estimate   =  -16707.44419949 Ry
     estimated scf accuracy    <       0.00250589 Ry

     iteration #  6     ecut=   120.00 Ry     beta= 0.70
     Davidson diagonalization with overlap
     ethr =  5.80E-07,  avg # of iterations =  3.5

     total cpu time spent up to now is    35467.2 secs

     total energy              =  -16707.44352617 Ry
     Harris-Foulkes estimate   =  -16707.44414717 Ry
     estimated scf accuracy    <       0.00140330 Ry

     iteration #  7     ecut=   120.00 Ry     beta= 0.70
     Davidson diagonalization with overlap
     ethr =  3.25E-07,  avg # of iterations =  3.1

     total cpu time spent up to now is    40270.9 secs

     total energy              =  -16707.44382022 Ry
     Harris-Foulkes estimate   =  -16707.44385261 Ry
     estimated scf accuracy    <       0.00007483 Ry

     iteration #  8     ecut=   120.00 Ry     beta= 0.70
     Davidson diagonalization with overlap
     ethr =  1.73E-08,  avg # of iterations =  3.9

     total cpu time spent up to now is    46429.0 secs

     total energy              =  -16707.44384350 Ry
     Harris-Foulkes estimate   =  -16707.44385396 Ry
     estimated scf accuracy    <       0.00002226 Ry

     iteration #  9     ecut=   120.00 Ry     beta= 0.70
     Davidson diagonalization with overlap
     ethr =  5.15E-09,  avg # of iterations =  4.0

     total cpu time spent up to now is    51687.3 secs

     total energy              =  -16707.44384821 Ry
     Harris-Foulkes estimate   =  -16707.44384960 Ry
     estimated scf accuracy    <       0.00000301 Ry

     iteration # 10     ecut=   120.00 Ry     beta= 0.70
     Davidson diagonalization with overlap
     ethr =  6.97E-10,  avg # of iterations =  4.0

     total cpu time spent up to now is    57132.5 secs

     total energy              =  -16707.44384891 Ry
     Harris-Foulkes estimate   =  -16707.44384908 Ry
     estimated scf accuracy    <       0.00000039 Ry

     iteration # 11     ecut=   120.00 Ry     beta= 0.70
     Davidson diagonalization with overlap
     ethr =  8.95E-11,  avg # of iterations =  4.0

     total cpu time spent up to now is    62676.3 secs

     End of self-consistent calculation

          k = 0.1233 0.1222 0.1233 (311295 PWs)   bands (ev):

   -18.0277 -17.9478 -17.9384 -17.9384 -17.9078 -17.8802 -17.8788 -17.8440
   -15.8444 -15.7507 -15.7419 -15.7221 -15.7054 -15.6637 -15.6539 -15.6030
   -14.3483 -14.3250 -14.3216 -14.3045 -14.3015 -14.3004 -14.2977 -14.2857
   -14.2854 -14.2829 -14.2827 -14.2805 -14.2778 -14.2741 -14.2673 -14.2622
   -14.2589 -14.2583 -14.2547 -14.2529 -14.2478 -14.2446 -14.2438 -14.2430
   -14.2415 -14.2380 -14.2367 -14.2332 -14.2306 -14.2301 -14.2278 -14.2268
   -14.2199 -14.2185 -14.2094 -14.2044 -14.2019 -14.1992 -14.1908 -14.1893
    -9.8818  -9.8414  -9.7899  -9.7478  -9.7418  -9.7001  -9.6767  -9.6429
    -9.6014  -9.5248  -9.4776  -9.4416  -9.3914  -9.3594  -9.3274  -9.2938
    -9.2128  -9.1956  -9.1575  -9.1423  -9.1162  -9.0915  -9.0806  -9.0547
    -9.0388  -9.0259  -9.0043  -8.9824  -8.9581  -8.9313  -8.8724  -8.8512
    -7.8709  -7.7578  -7.7450  -7.7321  -7.7216  -7.6972  -7.6790  -7.6511
    -7.2091  -7.1571  -7.1546  -7.1363  -7.1060  -7.0696  -7.0488  -6.9880
    -5.8959  -5.5843  -5.4775  -5.4521  -5.4345  -5.4205  -5.4120  -5.4017
    -5.3615  -5.3471  -5.3329  -5.3006  -5.0454  -5.0195  -4.9843  -4.6039
    -3.9738  -3.8949  -3.8657  -3.8602  -3.8576  -3.8396  -3.8323  -3.7829
    -3.3865  -3.3548  -3.3326  -3.3190  -3.3084  -3.2832  -3.2752  -3.2405
    -0.9797  -0.8847  -0.8320  -0.7955  -0.7457  -0.7308  -0.6964  -0.6664
    -0.6293  -0.5892  -0.5729  -0.4657  -0.2660  -0.2299  -0.2043  -0.1752
    -0.1538  -0.1136  -0.0649  -0.0304   0.2649   0.3470   0.3985   0.4490
     0.4605   0.4880   0.5217   0.5334   0.5735   0.6368   0.6618   0.7264
     0.7337   0.7763   0.8000   0.8416   0.8633   0.8909   0.9299   0.9679
     0.9835   0.9951   1.0085   1.0229   1.0409   1.0647   1.0834   1.0932
     1.1131   1.1293   1.1573   1.1708   1.1930   1.2044   1.2238   1.2568
     1.2682   1.2824   1.3094   1.3139   1.3413   1.3528   1.3666   1.3872
     1.4053   1.4487   1.4626   1.4863   1.5058   1.5358   1.5612   1.5840
     1.6133   1.7051   1.7297   1.7672   1.7986   1.8284   1.8640   2.0959

          k = 0.1233 0.1222 0.3700 (311303 PWs)   bands (ev):

   -18.0277 -17.9478 -17.9384 -17.9384 -17.9078 -17.8802 -17.8788 -17.8440
   -15.8444 -15.7507 -15.7419 -15.7221 -15.7054 -15.6637 -15.6540 -15.6030
   -14.3474 -14.3259 -14.3216 -14.3045 -14.3015 -14.2996 -14.2976 -14.2857
   -14.2849 -14.2828 -14.2822 -14.2803 -14.2778 -14.2760 -14.2674 -14.2622
   -14.2589 -14.2584 -14.2547 -14.2530 -14.2478 -14.2446 -14.2430 -14.2430
   -14.2415 -14.2380 -14.2367 -14.2326 -14.2312 -14.2306 -14.2278 -14.2268
   -14.2200 -14.2185 -14.2094 -14.2044 -14.2019 -14.1992 -14.1908 -14.1893
    -9.8628  -9.8349  -9.7900  -9.7636  -9.7506  -9.7018  -9.6835  -9.6474
    -9.5951  -9.5142  -9.4875  -9.4395  -9.4144  -9.3627  -9.3401  -9.2940
    -9.1958  -9.1777  -9.1487  -9.1401  -9.1064  -9.0851  -9.0708  -9.0542
    -9.0460  -9.0163  -9.0054  -8.9904  -8.9610  -8.9489  -8.8721  -8.8537
    -7.8708  -7.7555  -7.7457  -7.7343  -7.7191  -7.6986  -7.6807  -7.6514
    -7.2091  -7.1569  -7.1545  -7.1362  -7.1063  -7.0697  -7.0488  -6.9879
    -5.7811  -5.6088  -5.5682  -5.4330  -5.4174  -5.4074  -5.3793  -5.3606
    -5.3502  -5.3322  -5.3055  -5.2879  -5.1801  -5.1165  -4.9143  -4.7409
    -3.9735  -3.8901  -3.8672  -3.8608  -3.8567  -3.8440  -3.8322  -3.7829
    -3.3864  -3.3547  -3.3316  -3.3180  -3.3091  -3.2834  -3.2761  -3.2408
    -0.8186  -0.7993  -0.7542  -0.7013  -0.6783  -0.6295  -0.6061  -0.5831
    -0.5293  -0.4472  -0.3573  -0.2729  -0.2554  -0.2146  -0.1951  -0.1803
    -0.1463  -0.0998  -0.0729  -0.0328   0.0911   0.2059   0.2510   0.3135
     0.3639   0.3714   0.4232   0.4485   0.4832   0.5113   0.5224   0.5859
     0.6402   0.6797   0.7985   0.8501   0.8588   0.8845   0.9045   0.9295
     0.9387   0.9757   0.9943   1.0005   1.0191   1.0364   1.0595   1.1078
     1.1340   1.1648   1.1794   1.1910   1.2143   1.2292   1.2465   1.2644
     1.2823   1.2964   1.3095   1.3319   1.3373   1.3559   1.3742   1.3853
     1.4040   1.4392   1.4518   1.4778   1.4918   1.5043   1.5272   1.5528
     1.5750   1.6548   1.6774   1.7203   1.7507   1.7880   1.8653   1.9388

          k = 0.1233 0.3667 0.1233 (311241 PWs)   bands (ev):

   -18.0277 -17.9478 -17.9384 -17.9384 -17.9078 -17.8802 -17.8789 -17.8440
   -15.8444 -15.7507 -15.7419 -15.7221 -15.7054 -15.6637 -15.6539 -15.6030
   -14.3483 -14.3250 -14.3214 -14.3045 -14.3015 -14.3002 -14.2975 -14.2857
   -14.2846 -14.2829 -14.2827 -14.2806 -14.2778 -14.2744 -14.2666 -14.2622
   -14.2594 -14.2589 -14.2547 -14.2531 -14.2478 -14.2446 -14.2439 -14.2430
   -14.2415 -14.2380 -14.2367 -14.2333 -14.2306 -14.2302 -14.2278 -14.2268
   -14.2199 -14.2185 -14.2094 -14.2044 -14.2019 -14.1992 -14.1908 -14.1893
    -9.8812  -9.8400  -9.7887  -9.7488  -9.7410  -9.7006  -9.6745  -9.6447
    -9.6012  -9.5169  -9.4763  -9.4526  -9.3747  -9.3688  -9.3310  -9.2929
    -9.2601  -9.2020  -9.1548  -9.1392  -9.1126  -9.0904  -9.0682  -9.0536
    -9.0318  -9.0074  -8.9871  -8.9665  -8.9542  -8.9399  -8.8940  -8.8613
    -7.8696  -7.7558  -7.7427  -7.7348  -7.7223  -7.6940  -7.6820  -7.6520
    -7.2087  -7.1578  -7.1542  -7.1364  -7.1058  -7.0690  -7.0494  -6.9882
    -5.7851  -5.5858  -5.5613  -5.4353  -5.4206  -5.4088  -5.3727  -5.3644
    -5.3459  -5.3353  -5.3251  -5.2924  -5.1525  -5.1296  -4.9262  -4.7454
    -3.9715  -3.8924  -3.8696  -3.8609  -3.8548  -3.8407  -3.8333  -3.7838
    -3.3867  -3.3546  -3.3326  -3.3176  -3.3090  -3.2827  -3.2764  -3.2407
    -0.9760  -0.8693  -0.8069  -0.7640  -0.7023  -0.6677  -0.6169  -0.5076
    -0.3823  -0.3416  -0.2797  -0.2431  -0.2237  -0.1969  -0.1857  -0.1582
    -0.1442  -0.1186  -0.0667  -0.0295   0.1847   0.2230   0.2767   0.3200
     0.3816   0.4238   0.4449   0.4568   0.5055   0.5283   0.5893   0.6151
     0.6452   0.6965   0.7400   0.7634   0.7726   0.8603   0.8808   0.8941
     0.9228   0.9470   0.9781   1.0090   1.0421   1.0585   1.0756   1.0867
     1.1101   1.1371   1.1657   1.1801   1.2008   1.2079   1.2282   1.2592
     1.2801   1.2983   1.3064   1.3335   1.3476   1.3611   1.3948   1.4061
     1.4366   1.4514   1.4671   1.4782   1.4965   1.5090   1.5328   1.5629
     1.5836   1.6078   1.6173   1.6823   1.7069   1.7308   1.8235   1.9092

          k = 0.1233 0.3667 0.3700 (311304 PWs)   bands (ev):

   -18.0277 -17.9478 -17.9384 -17.9384 -17.9078 -17.8802 -17.8789 -17.8440
   -15.8444 -15.7507 -15.7419 -15.7221 -15.7054 -15.6637 -15.6540 -15.6030
   -14.3474 -14.3259 -14.3215 -14.3045 -14.3015 -14.2994 -14.2973 -14.2857
   -14.2843 -14.2828 -14.2819 -14.2805 -14.2778 -14.2765 -14.2667 -14.2622
   -14.2594 -14.2589 -14.2547 -14.2532 -14.2478 -14.2446 -14.2431 -14.2430
   -14.2415 -14.2380 -14.2367 -14.2327 -14.2313 -14.2306 -14.2278 -14.2268
   -14.2201 -14.2185 -14.2094 -14.2044 -14.2019 -14.1992 -14.1908 -14.1893
    -9.8649  -9.8304  -9.7893  -9.7624  -9.7511  -9.7027  -9.6815  -9.6479
    -9.5981  -9.5064  -9.4839  -9.4363  -9.4183  -9.3800  -9.3427  -9.2921
    -9.2152  -9.1807  -9.1547  -9.1425  -9.1192  -9.0718  -9.0663  -9.0549
    -9.0363  -9.0111  -8.9806  -8.9689  -8.9584  -8.9503  -8.8897  -8.8679
    -7.8695  -7.7523  -7.7439  -7.7377  -7.7194  -7.6961  -7.6832  -7.6522
    -7.2087  -7.1575  -7.1541  -7.1363  -7.1061  -7.0691  -7.0494  -6.9882
    -5.6770  -5.5852  -5.4889  -5.4535  -5.4262  -5.4172  -5.4059  -5.3699
    -5.3529  -5.3396  -5.3102  -5.2447  -5.2335  -5.0639  -5.0472  -4.8788
    -3.9714  -3.8890  -3.8675  -3.8645  -3.8542  -3.8431  -3.8335  -3.7836
    -3.3867  -3.3546  -3.3317  -3.3173  -3.3090  -3.2828  -3.2774  -3.2410
    -0.8027  -0.7562  -0.6428  -0.6000  -0.5639  -0.4985  -0.4038  -0.3483
    -0.3271  -0.2974  -0.2753  -0.2451  -0.2282  -0.2070  -0.1801  -0.1629
    -0.1450  -0.1002  -0.0716  -0.0206   0.0718   0.1745   0.2063   0.2222
     0.2622   0.3023   0.3261   0.3415   0.3911   0.4559   0.5178   0.5714
     0.6378   0.6601   0.7082   0.7347   0.7728   0.7869   0.8012   0.8187
     0.8563   0.8768   0.8928   0.9358   0.9652   0.9910   1.0251   1.0860
     1.1180   1.1537   1.1619   1.1994   1.2162   1.2295   1.2555   1.2779
     1.2968   1.3124   1.3297   1.3406   1.3584   1.3734   1.3871   1.4048
     1.4206   1.4453   1.4601   1.4762   1.4917   1.5015   1.5163   1.5405
     1.5694   1.5779   1.6167   1.6519   1.6660   1.6964   1.7307   1.7872

          k = 0.3699 0.1222 0.1233 (311297 PWs)   bands (ev):

   -18.0276 -17.9477 -17.9385 -17.9384 -17.9080 -17.8801 -17.8788 -17.8440
   -15.8431 -15.7506 -15.7432 -15.7222 -15.7053 -15.6635 -15.6540 -15.6032
   -14.3483 -14.3249 -14.3213 -14.3045 -14.3015 -14.3001 -14.2971 -14.2862
   -14.2857 -14.2829 -14.2827 -14.2807 -14.2778 -14.2742 -14.2674 -14.2622
   -14.2589 -14.2581 -14.2547 -14.2526 -14.2478 -14.2446 -14.2438 -14.2430
   -14.2415 -14.2380 -14.2367 -14.2334 -14.2306 -14.2302 -14.2278 -14.2268
   -14.2202 -14.2186 -14.2094 -14.2044 -14.2019 -14.1992 -14.1908 -14.1893
    -9.8591  -9.8204  -9.8036  -9.7462  -9.7421  -9.7322  -9.6810  -9.6533
    -9.6039  -9.5273  -9.4783  -9.4367  -9.3763  -9.3556  -9.3274  -9.2905
    -9.2497  -9.1949  -9.1528  -9.1389  -9.1157  -9.0951  -9.0749  -9.0495
    -9.0411  -9.0146  -8.9950  -8.9598  -8.9465  -8.9244  -8.8937  -8.8742
    -7.8678  -7.7600  -7.7473  -7.7346  -7.7231  -7.6978  -7.6799  -7.6521
    -7.2078  -7.1568  -7.1543  -7.1350  -7.1056  -7.0693  -7.0486  -6.9880
    -5.7782  -5.6003  -5.5404  -5.4309  -5.4217  -5.4074  -5.3929  -5.3600
    -5.3431  -5.3332  -5.3116  -5.3025  -5.1717  -5.1464  -4.8957  -4.7355
    -3.9721  -3.8947  -3.8641  -3.8611  -3.8591  -3.8407  -3.8323  -3.7832
    -3.3867  -3.3488  -3.3379  -3.3175  -3.3075  -3.2853  -3.2727  -3.2453
    -0.9735  -0.8730  -0.7862  -0.7535  -0.7360  -0.6725  -0.6276  -0.6127
    -0.4123  -0.3646  -0.3020  -0.2622  -0.2151  -0.2006  -0.1787  -0.1442
    -0.1268  -0.0884  -0.0570  -0.0213   0.1376   0.2337   0.2852   0.3409
     0.3791   0.4035   0.4394   0.4824   0.5066   0.5185   0.5500   0.6296
     0.6634   0.7457   0.7648   0.7793   0.8158   0.8475   0.8682   0.9136
     0.9439   0.9515   0.9773   1.0018   1.0451   1.0558   1.0748   1.1005
     1.1347   1.1555   1.1700   1.1832   1.1978   1.2064   1.2494   1.2642
     1.2821   1.2975   1.3174   1.3353   1.3597   1.3751   1.3885   1.4182
     1.4263   1.4440   1.4623   1.4696   1.5063   1.5145   1.5405   1.5690
     1.5894   1.6129   1.6377   1.6706   1.6881   1.7388   1.8233   1.8997

          k = 0.3699 0.1222 0.3700 (311335 PWs)   bands (ev):

   -18.0276 -17.9477 -17.9385 -17.9384 -17.9080 -17.8801 -17.8788 -17.8440
   -15.8431 -15.7506 -15.7432 -15.7222 -15.7054 -15.6635 -15.6540 -15.6032
   -14.3474 -14.3258 -14.3214 -14.3045 -14.3015 -14.2992 -14.2971 -14.2858
   -14.2857 -14.2829 -14.2823 -14.2804 -14.2778 -14.2760 -14.2675 -14.2622
   -14.2589 -14.2581 -14.2547 -14.2526 -14.2478 -14.2446 -14.2430 -14.2430
   -14.2415 -14.2380 -14.2367 -14.2328 -14.2314 -14.2306 -14.2278 -14.2268
   -14.2204 -14.2186 -14.2094 -14.2044 -14.2019 -14.1992 -14.1908 -14.1893
    -9.8437  -9.8187  -9.7914  -9.7634  -9.7513  -9.7298  -9.6888  -9.6552
    -9.5957  -9.5212  -9.4891  -9.4399  -9.4082  -9.3621  -9.3442  -9.2973
    -9.1947  -9.1782  -9.1529  -9.1384  -9.0999  -9.0885  -9.0749  -9.0611
    -9.0268  -9.0180  -9.0007  -8.9696  -8.9495  -8.9300  -8.8953  -8.8754
    -7.8682  -7.7587  -7.7460  -7.7380  -7.7205  -7.6992  -7.6812  -7.6517
    -7.2078  -7.1565  -7.1541  -7.1350  -7.1060  -7.0694  -7.0486  -6.9880
    -5.6665  -5.5435  -5.4952  -5.4767  -5.4298  -5.4193  -5.4068  -5.3934
    -5.3550  -5.3348  -5.3114  -5.3047  -5.2007  -5.0448  -5.0269  -4.8709
    -3.9718  -3.8900  -3.8664  -3.8597  -3.8592  -3.8449  -3.8321  -3.7831
    -3.3866  -3.3486  -3.3375  -3.3156  -3.3090  -3.2853  -3.2728  -3.2453
    -0.7733  -0.7410  -0.7030  -0.6518  -0.5798  -0.5280  -0.4243  -0.3843
    -0.3703  -0.3237  -0.2852  -0.2233  -0.2090  -0.1910  -0.1772  -0.1495
    -0.1190  -0.1098  -0.0726  -0.0361   0.0894   0.1757   0.1957   0.2489
     0.2704   0.2860   0.3391   0.3692   0.4046   0.4395   0.4949   0.5074
     0.6812   0.6982   0.7370   0.7463   0.7809   0.7975   0.8099   0.8400
     0.8642   0.8849   0.9147   0.9332   0.9732   0.9992   1.0271   1.0739
     1.1353   1.1772   1.1936   1.2079   1.2351   1.2463   1.2605   1.2702
     1.2892   1.3117   1.3219   1.3323   1.3550   1.3733   1.3981   1.4033
     1.4301   1.4393   1.4590   1.4648   1.4700   1.4968   1.5148   1.5407
     1.5591   1.5697   1.6308   1.6540   1.6720   1.7214   1.7544   1.7830

          k = 0.3699 0.3667 0.1233 (311286 PWs)   bands (ev):

   -18.0276 -17.9477 -17.9385 -17.9384 -17.9080 -17.8801 -17.8789 -17.8440
   -15.8431 -15.7506 -15.7433 -15.7222 -15.7053 -15.6635 -15.6540 -15.6032
   -14.3482 -14.3249 -14.3212 -14.3045 -14.3015 -14.2998 -14.2969 -14.2857
   -14.2854 -14.2829 -14.2828 -14.2809 -14.2778 -14.2744 -14.2668 -14.2622
   -14.2591 -14.2589 -14.2547 -14.2527 -14.2478 -14.2446 -14.2439 -14.2430
   -14.2415 -14.2380 -14.2367 -14.2335 -14.2306 -14.2303 -14.2278 -14.2268
   -14.2203 -14.2186 -14.2094 -14.2044 -14.2019 -14.1992 -14.1908 -14.1893
    -9.8595  -9.8176  -9.8037  -9.7459  -9.7422  -9.7303  -9.6802  -9.6523
    -9.6056  -9.5222  -9.4775  -9.4506  -9.3772  -9.3503  -9.3303  -9.2807
    -9.2535  -9.2261  -9.1706  -9.1405  -9.1206  -9.0903  -9.0604  -9.0406
    -9.0166  -8.9979  -8.9731  -8.9650  -8.9557  -8.9314  -8.9065  -8.8815
    -7.8667  -7.7571  -7.7466  -7.7361  -7.7238  -7.6946  -7.6826  -7.6530
    -7.2077  -7.1567  -7.1545  -7.1350  -7.1055  -7.0686  -7.0495  -6.9881
    -5.6708  -5.5414  -5.5037  -5.4541  -5.4302  -5.4145  -5.4016  -5.3917
    -5.3541  -5.3353  -5.3104  -5.2749  -5.2299  -5.0735  -5.0228  -4.8740
    -3.9703  -3.8926  -3.8654  -3.8620  -3.8581  -3.8410  -3.8337  -3.7838
    -3.3870  -3.3487  -3.3377  -3.3164  -3.3080  -3.2853  -3.2733  -3.2454
    -0.9690  -0.8503  -0.7680  -0.6378  -0.5192  -0.4214  -0.3845  -0.3607
    -0.3335  -0.2691  -0.2328  -0.2086  -0.2020  -0.1811  -0.1615  -0.1491
    -0.1109  -0.0733  -0.0624  -0.0152   0.0640   0.2055   0.2193   0.2383
     0.3179   0.3444   0.3817   0.4014   0.4318   0.4567   0.5038   0.5170
     0.5601   0.6034   0.6689   0.7151   0.7677   0.8167   0.8676   0.8965
     0.9019   0.9377   0.9654   0.9737   1.0199   1.0354   1.0608   1.0958
     1.1101   1.1208   1.1363   1.1533   1.1781   1.2004   1.2233   1.2356
     1.2539   1.2727   1.2982   1.3100   1.3455   1.3605   1.3832   1.4071
     1.4237   1.4436   1.4775   1.4887   1.4975   1.5267   1.5338   1.5446
     1.5651   1.5761   1.5960   1.6216   1.6453   1.6678   1.6869   1.7211

          k = 0.3699 0.3667 0.3700 (311363 PWs)   bands (ev):

   -18.0276 -17.9477 -17.9385 -17.9384 -17.9080 -17.8801 -17.8789 -17.8440
   -15.8431 -15.7506 -15.7433 -15.7222 -15.7054 -15.6635 -15.6540 -15.6032
   -14.3473 -14.3258 -14.3212 -14.3045 -14.3015 -14.2989 -14.2969 -14.2857
   -14.2852 -14.2829 -14.2821 -14.2805 -14.2778 -14.2765 -14.2668 -14.2622
   -14.2591 -14.2589 -14.2547 -14.2528 -14.2478 -14.2446 -14.2431 -14.2430
   -14.2415 -14.2380 -14.2367 -14.2329 -14.2315 -14.2306 -14.2278 -14.2268
   -14.2204 -14.2186 -14.2094 -14.2044 -14.2019 -14.1992 -14.1908 -14.1893
    -9.8459  -9.8134  -9.7926  -9.7649  -9.7488  -9.7290  -9.6885  -9.6525
    -9.6000  -9.5134  -9.4871  -9.4345  -9.4178  -9.3795  -9.3439  -9.2912
    -9.2128  -9.1819  -9.1615  -9.1504  -9.1070  -9.0767  -9.0715  -9.0415
    -9.0190  -8.9997  -8.9770  -8.9699  -8.9556  -8.9356  -8.9076  -8.8843
    -7.8671  -7.7546  -7.7457  -7.7406  -7.7210  -7.6965  -7.6836  -7.6525
    -7.2077  -7.1563  -7.1543  -7.1350  -7.1058  -7.0686  -7.0495  -6.9881
    -5.5715  -5.5340  -5.4317  -5.4219  -5.4139  -5.3968  -5.3900  -5.3722
    -5.3575  -5.3372  -5.3205  -5.3054  -5.2077  -5.1748  -5.1496  -5.0054
    -3.9701  -3.8892  -3.8658  -3.8624  -3.8581  -3.8431  -3.8340  -3.7836
    -3.3869  -3.3486  -3.3374  -3.3152  -3.3089  -3.2853  -3.2734  -3.2454
    -0.6160  -0.5509  -0.5003  -0.4332  -0.4223  -0.3757  -0.3584  -0.3307
    -0.3115  -0.2756  -0.2400  -0.2125  -0.1925  -0.1746  -0.1571  -0.1428
    -0.1140  -0.1006  -0.0589  -0.0361   0.0531   0.1367   0.1686   0.1907
     0.2234   0.2548   0.2684   0.2952   0.3302   0.3526   0.4001   0.4557
     0.6263   0.6657   0.7000   0.7120   0.7390   0.7767   0.8017   0.8090
     0.8305   0.8692   0.8976   0.9176   0.9242   0.9489   0.9834   1.0137
     1.0571   1.0799   1.1033   1.1168   1.1384   1.1665   1.1998   1.2157
     1.2707   1.2927   1.3191   1.3353   1.3440   1.3655   1.3792   1.4066
     1.4169   1.4500   1.4602   1.4792   1.4899   1.5036   1.5189   1.5440
     1.5531   1.5622   1.5733   1.5892   1.6080   1.6579   1.6791   1.6973

          k =-0.1233-0.1222 0.1233 (311295 PWs)   bands (ev):

   -18.0277 -17.9478 -17.9384 -17.9384 -17.9078 -17.8802 -17.8788 -17.8440
   -15.8444 -15.7507 -15.7419 -15.7221 -15.7054 -15.6637 -15.6539 -15.6030
   -14.3483 -14.3250 -14.3216 -14.3045 -14.3015 -14.3004 -14.2977 -14.2857
   -14.2854 -14.2829 -14.2827 -14.2805 -14.2778 -14.2741 -14.2673 -14.2622
   -14.2589 -14.2583 -14.2547 -14.2529 -14.2478 -14.2446 -14.2438 -14.2430
   -14.2415 -14.2380 -14.2367 -14.2332 -14.2306 -14.2301 -14.2278 -14.2268
   -14.2199 -14.2185 -14.2094 -14.2044 -14.2019 -14.1992 -14.1908 -14.1893
    -9.8809  -9.8406  -9.7891  -9.7486  -9.7433  -9.7008  -9.6771  -9.6458
    -9.6008  -9.5244  -9.4759  -9.4412  -9.3874  -9.3562  -9.3280  -9.2999
    -9.2145  -9.1866  -9.1619  -9.1502  -9.1077  -9.0931  -9.0827  -9.0584
    -9.0368  -9.0232  -9.0055  -8.9835  -8.9576  -8.9303  -8.8720  -8.8513
    -7.8707  -7.7577  -7.7450  -7.7321  -7.7215  -7.6974  -7.6792  -7.6515
    -7.2091  -7.1571  -7.1546  -7.1362  -7.1060  -7.0696  -7.0488  -6.9880
    -5.8955  -5.5840  -5.4781  -5.4559  -5.4297  -5.4247  -5.4125  -5.4031
    -5.3593  -5.3450  -5.3318  -5.3000  -5.0453  -5.0194  -4.9851  -4.6044
    -3.9737  -3.8951  -3.8658  -3.8602  -3.8573  -3.8395  -3.8324  -3.7829
    -3.3867  -3.3549  -3.3326  -3.3190  -3.3086  -3.2832  -3.2750  -3.2404
    -0.9839  -0.8729  -0.8296  -0.8060  -0.7495  -0.7298  -0.6929  -0.6647
    -0.6205  -0.6000  -0.5746  -0.4626  -0.2637  -0.2278  -0.2074  -0.1721
    -0.1547  -0.1157  -0.0632  -0.0319   0.2651   0.3535   0.3989   0.4446
     0.4592   0.4855   0.5075   0.5390   0.5763   0.6377   0.6676   0.7167
     0.7346   0.7636   0.7991   0.8384   0.8534   0.8901   0.9340   0.9587
     0.9830   1.0039   1.0131   1.0373   1.0567   1.0697   1.0819   1.1117
     1.1164   1.1299   1.1512   1.1631   1.1805   1.2083   1.2271   1.2380
     1.2640   1.2839   1.3112   1.3197   1.3446   1.3583   1.3659   1.3877
     1.4052   1.4446   1.4643   1.4924   1.5025   1.5396   1.5647   1.5821
     1.6104   1.7056   1.7338   1.7701   1.7904   1.8228   1.8657   2.0908

          k =-0.1233 0.1222-0.1233 (311295 PWs)   bands (ev):

   -18.0277 -17.9478 -17.9384 -17.9384 -17.9078 -17.8802 -17.8788 -17.8440
   -15.8444 -15.7507 -15.7419 -15.7221 -15.7054 -15.6637 -15.6539 -15.6030
   -14.3483 -14.3250 -14.3216 -14.3045 -14.3015 -14.3004 -14.2977 -14.2857
   -14.2854 -14.2829 -14.2827 -14.2805 -14.2778 -14.2741 -14.2673 -14.2622
   -14.2589 -14.2583 -14.2547 -14.2529 -14.2478 -14.2446 -14.2438 -14.2430
   -14.2415 -14.2380 -14.2367 -14.2332 -14.2306 -14.2301 -14.2278 -14.2268
   -14.2199 -14.2185 -14.2094 -14.2044 -14.2019 -14.1992 -14.1908 -14.1893
    -9.8822  -9.8409  -9.7901  -9.7462  -9.7438  -9.6994  -9.6761  -9.6435
    -9.6013  -9.5253  -9.4770  -9.4412  -9.3942  -9.3575  -9.3286  -9.2952
    -9.2030  -9.1934  -9.1651  -9.1460  -9.1120  -9.1002  -9.0731  -9.0564
    -9.0380  -9.0261  -9.0061  -8.9835  -8.9554  -8.9314  -8.8716  -8.8517
    -7.8709  -7.7579  -7.7449  -7.7323  -7.7213  -7.6975  -7.6790  -7.6512
    -7.2091  -7.1574  -7.1542  -7.1364  -7.1060  -7.0696  -7.0487  -6.9880
    -5.8959  -5.5839  -5.4784  -5.4559  -5.4308  -5.4205  -5.4150  -5.4009
    -5.3619  -5.3461  -5.3310  -5.2994  -5.0456  -5.0191  -4.9849  -4.6045
    -3.9735  -3.8953  -3.8665  -3.8604  -3.8568  -3.8391  -3.8323  -3.7831
    -3.3865  -3.3548  -3.3326  -3.3190  -3.3084  -3.2835  -3.2750  -3.2404
    -0.9774  -0.8815  -0.8303  -0.7875  -0.7429  -0.7251  -0.7073  -0.6708
    -0.6349  -0.5915  -0.5785  -0.4658  -0.2637  -0.2316  -0.2071  -0.1748
    -0.1543  -0.1125  -0.0615  -0.0328   0.2649   0.3514   0.3976   0.4524
     0.4680   0.4815   0.5197   0.5382   0.5781   0.6350   0.6732   0.6952
     0.7273   0.7810   0.8087   0.8384   0.8628   0.9001   0.9275   0.9589
     0.9754   0.9927   1.0172   1.0414   1.0495   1.0619   1.0812   1.0915
     1.1112   1.1270   1.1497   1.1799   1.1950   1.2044   1.2310   1.2465
     1.2598   1.2975   1.3031   1.3187   1.3398   1.3524   1.3692   1.3902
     1.3971   1.4438   1.4612   1.4881   1.5136   1.5345   1.5641   1.5865
     1.6148   1.7024   1.7454   1.7641   1.7979   1.8273   1.8489   2.0828

          k = 0.1233-0.1222-0.1233 (311295 PWs)   bands (ev):

   -18.0277 -17.9478 -17.9384 -17.9384 -17.9078 -17.8802 -17.8788 -17.8440
   -15.8444 -15.7507 -15.7419 -15.7221 -15.7054 -15.6637 -15.6539 -15.6030
   -14.3483 -14.3250 -14.3216 -14.3045 -14.3015 -14.3004 -14.2977 -14.2857
   -14.2854 -14.2829 -14.2827 -14.2805 -14.2778 -14.2741 -14.2673 -14.2622
   -14.2589 -14.2583 -14.2547 -14.2529 -14.2478 -14.2446 -14.2438 -14.2430
   -14.2415 -14.2380 -14.2367 -14.2332 -14.2306 -14.2301 -14.2278 -14.2268
   -14.2199 -14.2185 -14.2094 -14.2044 -14.2019 -14.1992 -14.1908 -14.1893
    -9.8811  -9.8402  -9.7892  -9.7481  -9.7436  -9.7010  -9.6767  -9.6473
    -9.6003  -9.5230  -9.4757  -9.4417  -9.3880  -9.3571  -9.3282  -9.2994
    -9.2054  -9.1917  -9.1705  -9.1379  -9.1225  -9.0941  -9.0731  -9.0601
    -9.0349  -9.0235  -9.0060  -8.9843  -8.9566  -8.9309  -8.8714  -8.8519
    -7.8706  -7.7578  -7.7451  -7.7318  -7.7216  -7.6975  -7.6792  -7.6515
    -7.2090  -7.1574  -7.1542  -7.1364  -7.1060  -7.0696  -7.0487  -6.9880
    -5.8958  -5.5846  -5.4786  -5.4523  -5.4317  -5.4204  -5.4128  -5.4021
    -5.3614  -5.3461  -5.3329  -5.3017  -5.0450  -5.0196  -4.9843  -4.6043
    -3.9736  -3.8953  -3.8665  -3.8603  -3.8568  -3.8395  -3.8321  -3.7830
    -3.3867  -3.3549  -3.3326  -3.3192  -3.3086  -3.2834  -3.2747  -3.2403
    -0.9869  -0.8775  -0.8258  -0.7917  -0.7476  -0.7225  -0.7007  -0.6702
    -0.6283  -0.5957  -0.5797  -0.4619  -0.2648  -0.2314  -0.2074  -0.1762
    -0.1506  -0.1126  -0.0632  -0.0321   0.2661   0.3516   0.3961   0.4469
     0.4674   0.4870   0.5163   0.5305   0.5741   0.6420   0.6730   0.7038
     0.7254   0.7852   0.8048   0.8352   0.8671   0.8875   0.9087   0.9477
     0.9837   0.9955   1.0225   1.0473   1.0571   1.0619   1.0795   1.1001
     1.1183   1.1353   1.1476   1.1696   1.1866   1.2135   1.2340   1.2528
     1.2643   1.2753   1.2992   1.3313   1.3376   1.3550   1.3679   1.3861
     1.4083   1.4480   1.4540   1.4868   1.5061   1.5395   1.5629   1.5822
     1.6118   1.7049   1.7449   1.7617   1.7998   1.8267   1.8513   2.0875

          k =-0.1233-0.1222 0.3700 (311303 PWs)   bands (ev):

   -18.0277 -17.9478 -17.9384 -17.9384 -17.9078 -17.8802 -17.8788 -17.8440
   -15.8444 -15.7507 -15.7419 -15.7221 -15.7054 -15.6637 -15.6540 -15.6030
   -14.3474 -14.3259 -14.3216 -14.3045 -14.3015 -14.2996 -14.2976 -14.2857
   -14.2849 -14.2828 -14.2822 -14.2803 -14.2778 -14.2760 -14.2674 -14.2622
   -14.2589 -14.2584 -14.2547 -14.2530 -14.2478 -14.2446 -14.2430 -14.2430
   -14.2415 -14.2380 -14.2367 -14.2326 -14.2312 -14.2306 -14.2278 -14.2268
   -14.2200 -14.2185 -14.2094 -14.2044 -14.2019 -14.1992 -14.1908 -14.1893
    -9.8613  -9.8342  -9.7890  -9.7650  -9.7524  -9.7025  -9.6838  -9.6498
    -9.5957  -9.5098  -9.4907  -9.4354  -9.4115  -9.3655  -9.3400  -9.2937
    -9.1959  -9.1762  -9.1605  -9.1307  -9.1065  -9.0842  -9.0715  -9.0585
    -9.0420  -9.0186  -9.0050  -8.9914  -8.9609  -8.9470  -8.8717  -8.8539
    -7.8706  -7.7552  -7.7458  -7.7341  -7.7190  -7.6988  -7.6809  -7.6518
    -7.2091  -7.1569  -7.1544  -7.1361  -7.1063  -7.0697  -7.0488  -6.9879
    -5.7800  -5.6098  -5.5689  -5.4326  -5.4180  -5.4089  -5.3814  -5.3625
    -5.3475  -5.3319  -5.3116  -5.2750  -5.1798  -5.1201  -4.9136  -4.7419
    -3.9734  -3.8904  -3.8671  -3.8608  -3.8565  -3.8440  -3.8323  -3.7829
    -3.3865  -3.3547  -3.3316  -3.3180  -3.3093  -3.2833  -3.2759  -3.2407
    -0.8162  -0.7972  -0.7641  -0.6875  -0.6824  -0.6371  -0.6074  -0.5782
    -0.5315  -0.4482  -0.3475  -0.2800  -0.2472  -0.2125  -0.1979  -0.1734
    -0.1492  -0.1019  -0.0721  -0.0290   0.0795   0.2018   0.2431   0.3158
     0.3560   0.3956   0.4149   0.4423   0.4760   0.5118   0.5257   0.6002
     0.6314   0.6738   0.7938   0.8403   0.8619   0.8858   0.9108   0.9327
     0.9515   0.9683   0.9830   1.0021   1.0161   1.0510   1.0744   1.1030
     1.1420   1.1650   1.1782   1.1942   1.2045   1.2195   1.2461   1.2584
     1.2770   1.2985   1.3181   1.3339   1.3376   1.3646   1.3743   1.3926
     1.4047   1.4364   1.4466   1.4664   1.5003   1.5167   1.5209   1.5568
     1.5661   1.6602   1.6701   1.7225   1.7518   1.7829   1.8683   1.9331

          k =-0.1233 0.1222-0.3700 (311303 PWs)   bands (ev):

   -18.0277 -17.9478 -17.9384 -17.9384 -17.9078 -17.8802 -17.8788 -17.8440
   -15.8444 -15.7507 -15.7419 -15.7221 -15.7054 -15.6637 -15.6540 -15.6030
   -14.3474 -14.3259 -14.3216 -14.3045 -14.3015 -14.2996 -14.2976 -14.2857
   -14.2849 -14.2828 -14.2822 -14.2803 -14.2778 -14.2760 -14.2674 -14.2622
   -14.2589 -14.2584 -14.2547 -14.2530 -14.2478 -14.2446 -14.2430 -14.2430
   -14.2415 -14.2380 -14.2367 -14.2326 -14.2312 -14.2306 -14.2278 -14.2268
   -14.2200 -14.2185 -14.2094 -14.2044 -14.2019 -14.1992 -14.1908 -14.1893
    -9.8632  -9.8344  -9.7901  -9.7639  -9.7511  -9.7009  -9.6827  -9.6485
    -9.5944  -9.5141  -9.4888  -9.4394  -9.4120  -9.3653  -9.3420  -9.2919
    -9.1884  -9.1792  -9.1612  -9.1300  -9.1102  -9.0834  -9.0707  -9.0517
    -9.0427  -9.0305  -9.0022  -8.9886  -8.9586  -8.9490  -8.8714  -8.8542
    -7.8708  -7.7555  -7.7455  -7.7344  -7.7189  -7.6989  -7.6806  -7.6515
    -7.2090  -7.1571  -7.1541  -7.1363  -7.1063  -7.0697  -7.0487  -6.9880
    -5.7808  -5.6068  -5.5718  -5.4334  -5.4175  -5.4081  -5.3807  -5.3606
    -5.3515  -5.3291  -5.3076  -5.2806  -5.1807  -5.1186  -4.9139  -4.7418
    -3.9732  -3.8906  -3.8676  -3.8612  -3.8562  -3.8436  -3.8321  -3.7831
    -3.3863  -3.3547  -3.3316  -3.3181  -3.3091  -3.2836  -3.2758  -3.2407
    -0.8263  -0.7740  -0.7355  -0.7218  -0.6760  -0.6380  -0.6145  -0.5814
    -0.5335  -0.4507  -0.3552  -0.2905  -0.2398  -0.2184  -0.1964  -0.1768
    -0.1444  -0.0987  -0.0721  -0.0387   0.0920   0.2089   0.2512   0.3095
     0.3569   0.3919   0.4190   0.4483   0.4791   0.5118   0.5241   0.5997
     0.6379   0.6624   0.8083   0.8358   0.8672   0.8815   0.9115   0.9354
     0.9525   0.9640   0.9752   1.0051   1.0279   1.0363   1.0813   1.0942
     1.1379   1.1565   1.1654   1.2112   1.2159   1.2318   1.2376   1.2571
     1.2818   1.2969   1.3135   1.3286   1.3419   1.3525   1.3729   1.3904
     1.4015   1.4311   1.4571   1.4693   1.4938   1.5178   1.5273   1.5521
     1.5770   1.6554   1.6800   1.7234   1.7644   1.7867   1.8409   1.9296

          k = 0.1233-0.1222-0.3700 (311303 PWs)   bands (ev):

   -18.0277 -17.9478 -17.9384 -17.9384 -17.9078 -17.8802 -17.8788 -17.8440
   -15.8444 -15.7507 -15.7419 -15.7221 -15.7054 -15.6637 -15.6540 -15.6030
   -14.3474 -14.3259 -14.3216 -14.3045 -14.3015 -14.2996 -14.2976 -14.2857
   -14.2849 -14.2828 -14.2822 -14.2803 -14.2778 -14.2760 -14.2674 -14.2622
   -14.2589 -14.2584 -14.2547 -14.2530 -14.2478 -14.2446 -14.2430 -14.2430
   -14.2415 -14.2380 -14.2367 -14.2326 -14.2312 -14.2306 -14.2278 -14.2268
   -14.2200 -14.2185 -14.2094 -14.2044 -14.2019 -14.1992 -14.1908 -14.1893
    -9.8615  -9.8339  -9.7886  -9.7655  -9.7526  -9.7024  -9.6832  -9.6516
    -9.5951  -9.5073  -9.4904  -9.4366  -9.4145  -9.3629  -9.3389  -9.2960
    -9.1923  -9.1832  -9.1519  -9.1288  -9.1148  -9.0898  -9.0664  -9.0560
    -9.0420  -9.0185  -9.0040  -8.9927  -8.9606  -8.9470  -8.8712  -8.8543
    -7.8706  -7.7554  -7.7458  -7.7339  -7.7191  -7.6989  -7.6809  -7.6518
    -7.2090  -7.1571  -7.1540  -7.1363  -7.1063  -7.0697  -7.0487  -6.9879
    -5.7804  -5.6113  -5.5668  -5.4324  -5.4180  -5.4075  -5.3780  -5.3618
    -5.3463  -5.3343  -5.3119  -5.2822  -5.1793  -5.1176  -4.9141  -4.7415
    -3.9732  -3.8906  -3.8676  -3.8613  -3.8558  -3.8441  -3.8319  -3.7830
    -3.3865  -3.3548  -3.3315  -3.3182  -3.3093  -3.2836  -3.2756  -3.2406
    -0.8315  -0.7808  -0.7341  -0.7200  -0.6851  -0.6290  -0.6093  -0.5865
    -0.5266  -0.4483  -0.3447  -0.2772  -0.2526  -0.2165  -0.1993  -0.1800
    -0.1419  -0.1004  -0.0686  -0.0296   0.0795   0.1982   0.2434   0.3204
     0.3660   0.3786   0.4265   0.4408   0.4837   0.5031   0.5262   0.5966
     0.6391   0.6690   0.7958   0.8427   0.8631   0.8851   0.9088   0.9320
     0.9409   0.9575   0.9922   1.0095   1.0239   1.0404   1.0756   1.1051
     1.1336   1.1591   1.1793   1.2054   1.2117   1.2325   1.2525   1.2639
     1.2791   1.2872   1.3097   1.3279   1.3340   1.3648   1.3747   1.3906
     1.4006   1.4309   1.4571   1.4671   1.4980   1.5113   1.5208   1.5582
     1.5669   1.6617   1.6773   1.7201   1.7653   1.7856   1.8480   1.9294

          k =-0.1233-0.3667 0.1233 (311241 PWs)   bands (ev):

   -18.0277 -17.9478 -17.9384 -17.9384 -17.9078 -17.8802 -17.8789 -17.8440
   -15.8444 -15.7507 -15.7419 -15.7221 -15.7054 -15.6637 -15.6539 -15.6030
   -14.3483 -14.3250 -14.3214 -14.3045 -14.3015 -14.3002 -14.2975 -14.2857
   -14.2846 -14.2829 -14.2827 -14.2806 -14.2778 -14.2744 -14.2666 -14.2622
   -14.2594 -14.2589 -14.2547 -14.2531 -14.2478 -14.2446 -14.2439 -14.2430
   -14.2415 -14.2380 -14.2367 -14.2333 -14.2306 -14.2302 -14.2278 -14.2268
   -14.2199 -14.2185 -14.2094 -14.2044 -14.2019 -14.1992 -14.1908 -14.1893
    -9.8805  -9.8391  -9.7879  -9.7510  -9.7408  -9.7014  -9.6750  -9.6461
    -9.6020  -9.5170  -9.4741  -9.4532  -9.3781  -9.3600  -9.3293  -9.2990
    -9.2560  -9.1942  -9.1660  -9.1442  -9.1117  -9.0909  -9.0639  -9.0524
    -9.0334  -9.0087  -8.9885  -8.9659  -8.9530  -8.9388  -8.8934  -8.8617
    -7.8694  -7.7558  -7.7423  -7.7351  -7.7221  -7.6944  -7.6822  -7.6524
    -7.2087  -7.1578  -7.1542  -7.1363  -7.1058  -7.0690  -7.0494  -6.9882
    -5.7845  -5.5853  -5.5631  -5.4352  -5.4210  -5.4096  -5.3766  -5.3643
    -5.3483  -5.3328  -5.3216  -5.2870  -5.1541  -5.1309  -4.9258  -4.7461
    -3.9715  -3.8926  -3.8698  -3.8609  -3.8541  -3.8407  -3.8336  -3.7839
    -3.3869  -3.3547  -3.3326  -3.3176  -3.3093  -3.2827  -3.2762  -3.2406
    -0.9816  -0.8580  -0.8099  -0.7717  -0.6969  -0.6588  -0.6223  -0.5014
    -0.3913  -0.3452  -0.2759  -0.2412  -0.2239  -0.2046  -0.1773  -0.1568
    -0.1432  -0.1237  -0.0634  -0.0362   0.1868   0.2265   0.2784   0.3346
     0.3689   0.4063   0.4496   0.4649   0.4961   0.5259   0.5951   0.6109
     0.6455   0.6998   0.7309   0.7618   0.7885   0.8523   0.8693   0.8903
     0.9113   0.9573   0.9988   1.0179   1.0400   1.0557   1.0743   1.0936
     1.1091   1.1326   1.1608   1.1876   1.1926   1.2244   1.2408   1.2465
     1.2687   1.2939   1.3106   1.3274   1.3463   1.3734   1.3916   1.4108
     1.4413   1.4483   1.4690   1.4803   1.4937   1.5070   1.5358   1.5583
     1.5781   1.6022   1.6284   1.6869   1.7007   1.7335   1.8187   1.9073

          k =-0.1233 0.3667-0.1233 (311241 PWs)   bands (ev):

   -18.0277 -17.9478 -17.9384 -17.9384 -17.9078 -17.8802 -17.8789 -17.8440
   -15.8444 -15.7507 -15.7419 -15.7221 -15.7054 -15.6637 -15.6539 -15.6030
   -14.3483 -14.3250 -14.3214 -14.3045 -14.3015 -14.3002 -14.2975 -14.2857
   -14.2846 -14.2829 -14.2827 -14.2806 -14.2778 -14.2744 -14.2666 -14.2622
   -14.2594 -14.2589 -14.2547 -14.2531 -14.2478 -14.2446 -14.2439 -14.2430
   -14.2415 -14.2380 -14.2367 -14.2333 -14.2306 -14.2302 -14.2278 -14.2268
   -14.2199 -14.2185 -14.2094 -14.2044 -14.2019 -14.1992 -14.1908 -14.1893
    -9.8816  -9.8395  -9.7891  -9.7478  -9.7423  -9.7000  -9.6738  -9.6453
    -9.6010  -9.5178  -9.4756  -9.4518  -9.3810  -9.3635  -9.3330  -9.2966
    -9.2529  -9.1947  -9.1590  -9.1469  -9.1128  -9.0930  -9.0596  -9.0540
    -9.0304  -9.0120  -8.9887  -8.9690  -8.9488  -8.9408  -8.8929  -8.8620
    -7.8696  -7.7558  -7.7425  -7.7352  -7.7220  -7.6943  -7.6820  -7.6521
    -7.2087  -7.1580  -7.1539  -7.1365  -7.1058  -7.0690  -7.0493  -6.9883
    -5.7851  -5.5842  -5.5636  -5.4350  -5.4207  -5.4097  -5.3756  -5.3648
    -5.3517  -5.3320  -5.3198  -5.2876  -5.1527  -5.1319  -4.9255  -4.7465
    -3.9713  -3.8928  -3.8700  -3.8614  -3.8541  -3.8401  -3.8335  -3.7840
    -3.3867  -3.3546  -3.3326  -3.3177  -3.3090  -3.2831  -3.2761  -3.2406
    -0.9750  -0.8685  -0.8014  -0.7661  -0.7009  -0.6662  -0.6117  -0.5106
    -0.3827  -0.3500  -0.2847  -0.2410  -0.2302  -0.2037  -0.1875  -0.1624
    -0.1452  -0.1194  -0.0611  -0.0338   0.1894   0.2365   0.2794   0.3412
     0.3787   0.4107   0.4504   0.4725   0.4846   0.5244   0.5781   0.6139
     0.6611   0.6970   0.7284   0.7557   0.8023   0.8355   0.8904   0.9021
     0.9159   0.9427   0.9864   1.0094   1.0406   1.0592   1.0714   1.0851
     1.1184   1.1373   1.1567   1.1812   1.1951   1.2240   1.2387   1.2518
     1.2617   1.2951   1.3154   1.3313   1.3429   1.3663   1.4036   1.4106
     1.4387   1.4495   1.4648   1.4812   1.4914   1.5094   1.5359   1.5577
     1.5877   1.5978   1.6366   1.6793   1.7013   1.7246   1.8281   1.8959

          k = 0.1233-0.3667-0.1233 (311241 PWs)   bands (ev):

   -18.0277 -17.9478 -17.9384 -17.9384 -17.9078 -17.8802 -17.8789 -17.8440
   -15.8444 -15.7507 -15.7419 -15.7221 -15.7054 -15.6637 -15.6539 -15.6030
   -14.3483 -14.3250 -14.3214 -14.3045 -14.3015 -14.3002 -14.2975 -14.2857
   -14.2846 -14.2829 -14.2827 -14.2806 -14.2778 -14.2744 -14.2666 -14.2622
   -14.2594 -14.2589 -14.2547 -14.2531 -14.2478 -14.2446 -14.2439 -14.2430
   -14.2415 -14.2380 -14.2367 -14.2333 -14.2306 -14.2302 -14.2278 -14.2268
   -14.2199 -14.2185 -14.2094 -14.2044 -14.2019 -14.1992 -14.1908 -14.1893
    -9.8807  -9.8386  -9.7881  -9.7507  -9.7408  -9.7016  -9.6746  -9.6477
    -9.6015  -9.5155  -9.4740  -9.4539  -9.3762  -9.3638  -9.3299  -9.2988
    -9.2504  -9.1962  -9.1713  -9.1371  -9.1174  -9.0935  -9.0600  -9.0540
    -9.0277  -9.0102  -8.9911  -8.9675  -8.9501  -8.9395  -8.8926  -8.8623
    -7.8693  -7.7558  -7.7425  -7.7347  -7.7222  -7.6945  -7.6822  -7.6524
    -7.2087  -7.1580  -7.1539  -7.1365  -7.1058  -7.0690  -7.0493  -6.9883
    -5.7851  -5.5890  -5.5578  -5.4356  -5.4203  -5.4092  -5.3718  -5.3636
    -5.3480  -5.3326  -5.3252  -5.2942  -5.1527  -5.1291  -4.9260  -4.7460
    -3.9713  -3.8927  -3.8703  -3.8611  -3.8538  -3.8405  -3.8334  -3.7840
    -3.3869  -3.3547  -3.3326  -3.3178  -3.3093  -3.2830  -3.2758  -3.2405
    -0.9830  -0.8581  -0.8085  -0.7706  -0.6969  -0.6575  -0.6189  -0.5024
    -0.3813  -0.3482  -0.2816  -0.2440  -0.2300  -0.2007  -0.1988  -0.1644
    -0.1443  -0.1167  -0.0573  -0.0301   0.1885   0.2343   0.2788   0.3265
     0.3802   0.4298   0.4445   0.4573   0.5025   0.5237   0.5778   0.6144
     0.6621   0.6853   0.7189   0.7622   0.8037   0.8385   0.8709   0.8971
     0.9184   0.9467   0.9971   1.0164   1.0363   1.0591   1.0728   1.0914
     1.1155   1.1254   1.1694   1.1800   1.1920   1.2156   1.2487   1.2633
     1.2754   1.2886   1.3072   1.3211   1.3401   1.3745   1.4000   1.4146
     1.4414   1.4506   1.4627   1.4819   1.4887   1.5069   1.5243   1.5606
     1.5897   1.6122   1.6260   1.6785   1.7048   1.7248   1.8258   1.9000

          k =-0.1233-0.3667 0.3700 (311304 PWs)   bands (ev):

   -18.0277 -17.9478 -17.9384 -17.9384 -17.9078 -17.8802 -17.8789 -17.8440
   -15.8444 -15.7507 -15.7419 -15.7221 -15.7054 -15.6637 -15.6540 -15.6030
   -14.3474 -14.3259 -14.3215 -14.3045 -14.3015 -14.2994 -14.2973 -14.2857
   -14.2843 -14.2828 -14.2819 -14.2806 -14.2778 -14.2765 -14.2667 -14.2622
   -14.2594 -14.2589 -14.2547 -14.2532 -14.2478 -14.2446 -14.2431 -14.2430
   -14.2415 -14.2380 -14.2367 -14.2327 -14.2313 -14.2306 -14.2278 -14.2268
   -14.2201 -14.2185 -14.2094 -14.2044 -14.2019 -14.1992 -14.1908 -14.1893
    -9.8637  -9.8298  -9.7878  -9.7645  -9.7518  -9.7035  -9.6819  -9.6493
    -9.5991  -9.5043  -9.4859  -9.4358  -9.4142  -9.3809  -9.3410  -9.2906
    -9.2170  -9.1727  -9.1645  -9.1417  -9.1236  -9.0751  -9.0587  -9.0517
    -9.0400  -9.0146  -8.9830  -8.9657  -8.9568  -8.9498  -8.8888  -8.8685
    -7.8692  -7.7522  -7.7434  -7.7380  -7.7192  -7.6965  -7.6833  -7.6526
    -7.2087  -7.1575  -7.1541  -7.1363  -7.1061  -7.0691  -7.0494  -6.9881
    -5.6752  -5.5826  -5.4954  -5.4653  -5.4255  -5.4167  -5.4070  -5.3572
    -5.3522  -5.3311  -5.3040  -5.2632  -5.2292  -5.0633  -5.0464  -4.8802
    -3.9713  -3.8893  -3.8676  -3.8645  -3.8536  -3.8431  -3.8337  -3.7837
    -3.3868  -3.3546  -3.3316  -3.3173  -3.3093  -3.2828  -3.2772  -3.2409
    -0.8009  -0.7670  -0.6364  -0.6085  -0.5501  -0.4790  -0.3901  -0.3676
    -0.3265  -0.3101  -0.2924  -0.2421  -0.2201  -0.1948  -0.1844  -0.1617
    -0.1490  -0.0983  -0.0701  -0.0287   0.0708   0.1640   0.2044   0.2181
     0.2684   0.3070   0.3292   0.3580   0.3804   0.4484   0.5239   0.5768
     0.6300   0.6615   0.7056   0.7438   0.7577   0.7857   0.8064   0.8221
     0.8536   0.8678   0.8970   0.9331   0.9665   0.9873   1.0377   1.0823
     1.1300   1.1482   1.1666   1.1911   1.2177   1.2361   1.2559   1.2828
     1.2945   1.3090   1.3281   1.3419   1.3578   1.3783   1.3933   1.4024
     1.4304   1.4455   1.4538   1.4708   1.4880   1.4992   1.5147   1.5386
     1.5599   1.5833   1.6305   1.6463   1.6693   1.6900   1.7295   1.7863

          k =-0.1233 0.3667-0.3700 (311304 PWs)   bands (ev):

   -18.0277 -17.9478 -17.9384 -17.9384 -17.9078 -17.8802 -17.8789 -17.8440
   -15.8444 -15.7507 -15.7419 -15.7221 -15.7054 -15.6637 -15.6540 -15.6030
   -14.3474 -14.3259 -14.3215 -14.3045 -14.3015 -14.2994 -14.2973 -14.2857
   -14.2843 -14.2828 -14.2819 -14.2806 -14.2778 -14.2765 -14.2667 -14.2622
   -14.2594 -14.2589 -14.2547 -14.2532 -14.2478 -14.2446 -14.2431 -14.2430
   -14.2415 -14.2380 -14.2367 -14.2327 -14.2313 -14.2306 -14.2278 -14.2268
   -14.2201 -14.2185 -14.2094 -14.2044 -14.2019 -14.1992 -14.1908 -14.1893
    -9.8652  -9.8300  -9.7894  -9.7627  -9.7515  -9.7019  -9.6806  -9.6491
    -9.5972  -9.5060  -9.4862  -9.4357  -9.4145  -9.3835  -9.3453  -9.2891
    -9.2141  -9.1783  -9.1551  -9.1442  -9.1223  -9.0752  -9.0621  -9.0508
    -9.0324  -9.0207  -8.9821  -8.9706  -8.9534  -8.9497  -8.8888  -8.8686
    -7.8694  -7.7524  -7.7436  -7.7380  -7.7191  -7.6964  -7.6831  -7.6523
    -7.2087  -7.1577  -7.1538  -7.1365  -7.1061  -7.0691  -7.0493  -6.9882
    -5.6765  -5.5815  -5.4954  -5.4646  -5.4248  -5.4170  -5.4067  -5.3618
    -5.3509  -5.3294  -5.3052  -5.2586  -5.2325  -5.0625  -5.0469  -4.8804
    -3.9711  -3.8895  -3.8676  -3.8650  -3.8537  -3.8425  -3.8336  -3.7838
    -3.3866  -3.3545  -3.3317  -3.3174  -3.3090  -3.2832  -3.2771  -3.2409
    -0.8021  -0.7531  -0.6350  -0.6016  -0.5598  -0.4841  -0.4011  -0.3592
    -0.3382  -0.3136  -0.2941  -0.2474  -0.2237  -0.1985  -0.1821  -0.1675
    -0.1413  -0.0903  -0.0700  -0.0441   0.0776   0.1751   0.2109   0.2262
     0.2791   0.3079   0.3328   0.3523   0.3754   0.4480   0.5134   0.5822
     0.6332   0.6613   0.7152   0.7469   0.7548   0.7807   0.8077   0.8262
     0.8447   0.8669   0.9017   0.9379   0.9709   0.9914   1.0254   1.0829
     1.1246   1.1467   1.1613   1.2006   1.2169   1.2329   1.2553   1.2691
     1.2919   1.3165   1.3259   1.3385   1.3513   1.3726   1.3896   1.4210
     1.4309   1.4531   1.4591   1.4713   1.4858   1.4982   1.5175   1.5400
     1.5692   1.5741   1.6219   1.6505   1.6754   1.6954   1.7186   1.7789

          k = 0.1233-0.3667-0.3700 (311304 PWs)   bands (ev):

   -18.0277 -17.9478 -17.9384 -17.9384 -17.9078 -17.8802 -17.8789 -17.8440
   -15.8444 -15.7507 -15.7419 -15.7221 -15.7054 -15.6637 -15.6540 -15.6030
   -14.3474 -14.3259 -14.3215 -14.3045 -14.3015 -14.2994 -14.2973 -14.2857
   -14.2843 -14.2828 -14.2819 -14.2806 -14.2778 -14.2765 -14.2667 -14.2622
   -14.2594 -14.2589 -14.2547 -14.2532 -14.2478 -14.2446 -14.2431 -14.2430
   -14.2415 -14.2380 -14.2367 -14.2327 -14.2313 -14.2306 -14.2278 -14.2268
   -14.2201 -14.2185 -14.2094 -14.2044 -14.2019 -14.1992 -14.1908 -14.1893
    -9.8639  -9.8295  -9.7875  -9.7651  -9.7520  -9.7034  -9.6812  -9.6512
    -9.5984  -9.5018  -9.4850  -9.4377  -9.4186  -9.3766  -9.3398  -9.2940
    -9.2144  -9.1782  -9.1545  -9.1438  -9.1280  -9.0761  -9.0630  -9.0509
    -9.0315  -9.0154  -8.9870  -8.9680  -8.9542  -8.9484  -8.8883  -8.8691
    -7.8692  -7.7524  -7.7437  -7.7376  -7.7192  -7.6966  -7.6833  -7.6527
    -7.2086  -7.1577  -7.1538  -7.1364  -7.1061  -7.0691  -7.0493  -6.9882
    -5.6755  -5.5880  -5.4908  -5.4514  -5.4265  -5.4161  -5.4064  -5.3666
    -5.3525  -5.3400  -5.3094  -5.2549  -5.2258  -5.0637  -5.0474  -4.8794
    -3.9711  -3.8894  -3.8683  -3.8645  -3.8532  -3.8430  -3.8334  -3.7838
    -3.3868  -3.3547  -3.3316  -3.3175  -3.3094  -3.2831  -3.2768  -3.2408
    -0.8023  -0.7644  -0.6324  -0.6062  -0.5536  -0.4889  -0.3954  -0.3465
    -0.3275  -0.2988  -0.2869  -0.2550  -0.2289  -0.2154  -0.1869  -0.1708
    -0.1391  -0.1011  -0.0581  -0.0203   0.0647   0.1669   0.2001   0.2257
     0.2715   0.3067   0.3355   0.3469   0.3915   0.4461   0.5255   0.5701
     0.6402   0.6659   0.6938   0.7221   0.7708   0.7928   0.8090   0.8232
     0.8421   0.8683   0.9001   0.9421   0.9690   0.9857   1.0323   1.0838
     1.1308   1.1367   1.1577   1.2014   1.2191   1.2380   1.2682   1.2846
     1.2893   1.3089   1.3328   1.3360   1.3543   1.3792   1.3900   1.4067
     1.4311   1.4465   1.4536   1.4702   1.4827   1.5024   1.5132   1.5438
     1.5500   1.5974   1.6198   1.6572   1.6647   1.6948   1.7222   1.7797

          k =-0.3699-0.1222 0.1233 (311297 PWs)   bands (ev):

   -18.0276 -17.9477 -17.9385 -17.9384 -17.9080 -17.8801 -17.8788 -17.8440
   -15.8431 -15.7506 -15.7432 -15.7222 -15.7053 -15.6635 -15.6540 -15.6032
   -14.3483 -14.3249 -14.3213 -14.3045 -14.3015 -14.3001 -14.2971 -14.2862
   -14.2857 -14.2829 -14.2827 -14.2807 -14.2778 -14.2742 -14.2674 -14.2622
   -14.2589 -14.2581 -14.2547 -14.2526 -14.2478 -14.2446 -14.2438 -14.2430
   -14.2415 -14.2380 -14.2367 -14.2334 -14.2306 -14.2302 -14.2278 -14.2268
   -14.2202 -14.2186 -14.2094 -14.2044 -14.2019 -14.1992 -14.1908 -14.1893
    -9.8585  -9.8169  -9.8033  -9.7486  -9.7440  -9.7341  -9.6815  -9.6547
    -9.6031  -9.5272  -9.4773  -9.4356  -9.3661  -9.3559  -9.3268  -9.3024
    -9.2505  -9.1845  -9.1650  -9.1370  -9.1143  -9.0928  -9.0759  -9.0523
    -9.0393  -9.0144  -8.9948  -8.9584  -8.9504  -8.9206  -8.8953  -8.8735
    -7.8675  -7.7598  -7.7473  -7.7343  -7.7232  -7.6979  -7.6801  -7.6524
    -7.2077  -7.1568  -7.1543  -7.1349  -7.1057  -7.0693  -7.0486  -6.9880
    -5.7777  -5.6009  -5.5403  -5.4306  -5.4222  -5.4069  -5.3912  -5.3642
    -5.3474  -5.3333  -5.3146  -5.2925  -5.1717  -5.1459  -4.8962  -4.7361
    -3.9721  -3.8950  -3.8641  -3.8610  -3.8588  -3.8408  -3.8324  -3.7833
    -3.3868  -3.3490  -3.3378  -3.3175  -3.3077  -3.2853  -3.2725  -3.2452
    -0.9750  -0.8647  -0.7905  -0.7592  -0.7347  -0.6723  -0.6263  -0.6144
    -0.4140  -0.3556  -0.3068  -0.2552  -0.2116  -0.2022  -0.1767  -0.1471
    -0.1280  -0.0870  -0.0481  -0.0317   0.1263   0.2285   0.3093   0.3372
     0.3743   0.4078   0.4433   0.4786   0.5000   0.5218   0.5379   0.6205
     0.6692   0.7310   0.7597   0.7729   0.8228   0.8431   0.8798   0.9075
     0.9383   0.9469   0.9820   1.0263   1.0529   1.0681   1.0813   1.1168
     1.1255   1.1445   1.1602   1.1721   1.1974   1.2249   1.2291   1.2588
     1.2920   1.3041   1.3213   1.3448   1.3625   1.3761   1.3865   1.4186
     1.4274   1.4450   1.4578   1.4633   1.5052   1.5157   1.5534   1.5631
     1.5826   1.6040   1.6414   1.6714   1.6932   1.7350   1.8176   1.8978

          k =-0.3699 0.1222-0.1233 (311297 PWs)   bands (ev):

   -18.0276 -17.9477 -17.9385 -17.9384 -17.9080 -17.8801 -17.8788 -17.8440
   -15.8431 -15.7506 -15.7432 -15.7222 -15.7053 -15.6635 -15.6540 -15.6032
   -14.3483 -14.3249 -14.3213 -14.3045 -14.3015 -14.3001 -14.2971 -14.2862
   -14.2857 -14.2829 -14.2827 -14.2807 -14.2778 -14.2742 -14.2674 -14.2622
   -14.2589 -14.2581 -14.2547 -14.2526 -14.2478 -14.2446 -14.2438 -14.2430
   -14.2415 -14.2380 -14.2367 -14.2334 -14.2306 -14.2302 -14.2278 -14.2268
   -14.2202 -14.2186 -14.2094 -14.2044 -14.2019 -14.1992 -14.1908 -14.1893
    -9.8598  -9.8189  -9.8043  -9.7466  -9.7416  -9.7323  -9.6803  -9.6544
    -9.6033  -9.5280  -9.4782  -9.4356  -9.3756  -9.3576  -9.3292  -9.2914
    -9.2455  -9.1856  -9.1679  -9.1345  -9.1153  -9.1007  -9.0688  -9.0490
    -9.0393  -9.0170  -8.9983  -8.9599  -8.9449  -8.9227  -8.8930  -8.8753
    -7.8677  -7.7601  -7.7472  -7.7345  -7.7230  -7.6979  -7.6799  -7.6522
    -7.2077  -7.1571  -7.1539  -7.1351  -7.1057  -7.0693  -7.0485  -6.9881
    -5.7785  -5.6008  -5.5392  -5.4311  -5.4219  -5.4071  -5.3930  -5.3580
    -5.3513  -5.3319  -5.3090  -5.3007  -5.1712  -5.1458  -4.8959  -4.7364
    -3.9718  -3.8951  -3.8653  -3.8608  -3.8583  -3.8403  -3.8323  -3.7834
    -3.3867  -3.3488  -3.3379  -3.3175  -3.3075  -3.2855  -3.2725  -3.2452
    -0.9714  -0.8671  -0.7918  -0.7493  -0.7383  -0.6610  -0.6270  -0.6196
    -0.4299  -0.3611  -0.3025  -0.2590  -0.2237  -0.2022  -0.1863  -0.1399
    -0.1229  -0.0836  -0.0610  -0.0256   0.1448   0.2439   0.2825   0.3420
     0.3876   0.4040   0.4496   0.4738   0.5014   0.5253   0.5416   0.6265
     0.6680   0.7287   0.7592   0.7831   0.8135   0.8590   0.8815   0.8946
     0.9402   0.9508   0.9722   1.0193   1.0548   1.0674   1.0745   1.0930
     1.1296   1.1475   1.1560   1.1824   1.2003   1.2134   1.2448   1.2751
     1.2818   1.3089   1.3285   1.3421   1.3658   1.3739   1.3897   1.4072
     1.4164   1.4337   1.4617   1.4711   1.4942   1.5198   1.5510   1.5801
     1.5926   1.6100   1.6494   1.6595   1.6837   1.7319   1.8266   1.8827

          k = 0.3699-0.1222-0.1233 (311297 PWs)   bands (ev):

   -18.0276 -17.9477 -17.9385 -17.9384 -17.9080 -17.8801 -17.8788 -17.8440
   -15.8431 -15.7506 -15.7432 -15.7222 -15.7053 -15.6635 -15.6540 -15.6032
   -14.3483 -14.3249 -14.3213 -14.3045 -14.3015 -14.3001 -14.2971 -14.2862
   -14.2857 -14.2829 -14.2827 -14.2807 -14.2778 -14.2742 -14.2674 -14.2622
   -14.2589 -14.2581 -14.2547 -14.2526 -14.2478 -14.2446 -14.2438 -14.2430
   -14.2415 -14.2380 -14.2367 -14.2334 -14.2306 -14.2302 -14.2278 -14.2268
   -14.2202 -14.2186 -14.2094 -14.2044 -14.2019 -14.1992 -14.1908 -14.1893
    -9.8587  -9.8166  -9.8034  -9.7483  -9.7422  -9.7362  -9.6811  -9.6553
    -9.6033  -9.5260  -9.4765  -9.4370  -9.3683  -9.3549  -9.3273  -9.3038
    -9.2430  -9.1871  -9.1658  -9.1308  -9.1220  -9.1018  -9.0677  -9.0485
    -9.0406  -9.0159  -8.9944  -8.9598  -8.9495  -8.9201  -8.8942  -8.8745
    -7.8675  -7.7599  -7.7473  -7.7342  -7.7232  -7.6981  -7.6800  -7.6525
    -7.2077  -7.1571  -7.1539  -7.1351  -7.1057  -7.0693  -7.0485  -6.9881
    -5.7780  -5.6008  -5.5406  -5.4305  -5.4221  -5.4071  -5.3914  -5.3599
    -5.3475  -5.3308  -5.3140  -5.2987  -5.1722  -5.1464  -4.8951  -4.7363
    -3.9719  -3.8951  -3.8655  -3.8607  -3.8582  -3.8406  -3.8321  -3.7834
    -3.3868  -3.3490  -3.3378  -3.3177  -3.3077  -3.2854  -3.2722  -3.2452
    -0.9774  -0.8709  -0.7828  -0.7539  -0.7370  -0.6577  -0.6261  -0.6184
    -0.4267  -0.3585  -0.3110  -0.2518  -0.2206  -0.2028  -0.1824  -0.1425
    -0.1244  -0.0759  -0.0601  -0.0340   0.1328   0.2401   0.3126   0.3302
     0.3761   0.4100   0.4498   0.4762   0.5025   0.5140   0.5369   0.6234
     0.6643   0.7386   0.7579   0.7756   0.8252   0.8557   0.8705   0.9072
     0.9299   0.9587   0.9882   1.0148   1.0349   1.0587   1.0842   1.1048
     1.1281   1.1429   1.1626   1.1881   1.2079   1.2233   1.2419   1.2571
     1.2895   1.3027   1.3235   1.3372   1.3580   1.3777   1.3922   1.4036
     1.4321   1.4339   1.4489   1.4826   1.4944   1.5181   1.5544   1.5693
     1.5852   1.6079   1.6490   1.6677   1.6871   1.7301   1.8281   1.8892

          k =-0.3699-0.1222 0.3700 (311335 PWs)   bands (ev):

   -18.0276 -17.9477 -17.9385 -17.9384 -17.9080 -17.8801 -17.8788 -17.8440
   -15.8431 -15.7506 -15.7432 -15.7222 -15.7054 -15.6635 -15.6540 -15.6032
   -14.3474 -14.3258 -14.3214 -14.3045 -14.3015 -14.2992 -14.2971 -14.2858
   -14.2857 -14.2829 -14.2823 -14.2804 -14.2778 -14.2760 -14.2675 -14.2622
   -14.2589 -14.2581 -14.2547 -14.2526 -14.2478 -14.2446 -14.2430 -14.2430
   -14.2415 -14.2380 -14.2367 -14.2328 -14.2314 -14.2306 -14.2278 -14.2268
   -14.2204 -14.2186 -14.2094 -14.2044 -14.2019 -14.1992 -14.1908 -14.1893
    -9.8435  -9.8141  -9.7897  -9.7676  -9.7520  -9.7337  -9.6893  -9.6563
    -9.5959  -9.5168  -9.4926  -9.4346  -9.4038  -9.3667  -9.3447  -9.2974
    -9.1958  -9.1811  -9.1545  -9.1300  -9.1090  -9.0843  -9.0762  -9.0572
    -9.0318  -9.0105  -9.0073  -8.9672  -8.9528  -8.9261  -8.8967  -8.8747
    -7.8680  -7.7585  -7.7462  -7.7377  -7.7206  -7.6992  -7.6815  -7.6521
    -7.2077  -7.1565  -7.1541  -7.1349  -7.1060  -7.0694  -7.0486  -6.9879
    -5.6646  -5.5439  -5.5003  -5.4763  -5.4290  -5.4187  -5.4059  -5.3875
    -5.3617  -5.3390  -5.3162  -5.2954  -5.1967  -5.0466  -5.0260  -4.8724
    -3.9717  -3.8903  -3.8662  -3.8601  -3.8586  -3.8451  -3.8322  -3.7832
    -3.3867  -3.3488  -3.3374  -3.3156  -3.3092  -3.2852  -3.2726  -3.2452
    -0.7715  -0.7365  -0.6951  -0.6559  -0.6071  -0.5254  -0.4131  -0.4017
    -0.3534  -0.3100  -0.2935  -0.2223  -0.2007  -0.1881  -0.1751  -0.1470
    -0.1176  -0.0942  -0.0769  -0.0276   0.0652   0.1499   0.1792   0.2305
     0.2718   0.2967   0.3477   0.3881   0.4171   0.4377   0.4863   0.5116
     0.6634   0.6871   0.7300   0.7492   0.7909   0.8054   0.8227   0.8392
     0.8632   0.8800   0.9089   0.9376   0.9723   1.0111   1.0273   1.0817
     1.1452   1.1761   1.1976   1.2126   1.2160   1.2253   1.2544   1.2776
     1.2879   1.3133   1.3396   1.3486   1.3633   1.3755   1.3881   1.4094
     1.4235   1.4356   1.4427   1.4664   1.4867   1.4964   1.5072   1.5307
     1.5596   1.5657   1.6310   1.6598   1.6789   1.7087   1.7544   1.7841

          k =-0.3699 0.1222-0.3700 (311335 PWs)   bands (ev):

   -18.0276 -17.9477 -17.9385 -17.9384 -17.9080 -17.8801 -17.8788 -17.8440
   -15.8431 -15.7506 -15.7432 -15.7222 -15.7054 -15.6635 -15.6540 -15.6032
   -14.3474 -14.3258 -14.3214 -14.3045 -14.3015 -14.2992 -14.2971 -14.2858
   -14.2857 -14.2829 -14.2823 -14.2804 -14.2778 -14.2760 -14.2675 -14.2622
   -14.2589 -14.2581 -14.2547 -14.2526 -14.2478 -14.2446 -14.2430 -14.2430
   -14.2415 -14.2380 -14.2367 -14.2328 -14.2314 -14.2306 -14.2278 -14.2268
   -14.2204 -14.2186 -14.2094 -14.2044 -14.2019 -14.1992 -14.1908 -14.1893
    -9.8447  -9.8164  -9.7924  -9.7654  -9.7501  -9.7292  -9.6880  -9.6566
    -9.5948  -9.5209  -9.4909  -9.4384  -9.4051  -9.3666  -9.3454  -9.2953
    -9.1882  -9.1835  -9.1573  -9.1255  -9.1165  -9.0850  -9.0713  -9.0558
    -9.0294  -9.0207  -9.0052  -8.9657  -8.9513  -8.9273  -8.8943  -8.8766
    -7.8682  -7.7588  -7.7459  -7.7380  -7.7205  -7.6993  -7.6812  -7.6518
    -7.2077  -7.1568  -7.1537  -7.1351  -7.1060  -7.0694  -7.0485  -6.9880
    -5.6666  -5.5425  -5.4951  -5.4799  -5.4299  -5.4193  -5.4059  -5.3929
    -5.3544  -5.3346  -5.3139  -5.3035  -5.1975  -5.0443  -5.0280  -4.8722
    -3.9715  -3.8905  -3.8667  -3.8607  -3.8579  -3.8446  -3.8320  -3.7833
    -3.3865  -3.3486  -3.3374  -3.3157  -3.3090  -3.2855  -3.2726  -3.2452
    -0.7727  -0.7268  -0.6923  -0.6595  -0.5905  -0.5314  -0.4237  -0.3872
    -0.3726  -0.3300  -0.2834  -0.2309  -0.2055  -0.1888  -0.1756  -0.1543
    -0.1231  -0.1043  -0.0706  -0.0463   0.0903   0.1761   0.2043   0.2461
     0.2789   0.2898   0.3414   0.3666   0.4049   0.4428   0.4862   0.5180
     0.6744   0.7005   0.7175   0.7527   0.7837   0.7956   0.8156   0.8420
     0.8614   0.8947   0.9197   0.9242   0.9734   1.0130   1.0189   1.0753
     1.1338   1.1763   1.1876   1.2046   1.2333   1.2419   1.2624   1.2841
[...]
    -9.0467  -9.0273  -9.0215  -8.9977  -8.9959  -8.9543  -8.9443  -8.9145
    -7.9021  -7.7765  -7.7643  -7.7607  -7.7549  -7.7164  -7.6853  -7.6812
    -7.1939  -7.1803  -7.1476  -7.1426  -7.1301  -7.0510  -7.0309  -6.9785
    -5.5984  -5.5589  -5.4543  -5.4430  -5.4358  -5.4226  -5.4036  -5.3994
    -5.3843  -5.3445  -5.3351  -5.3087  -5.2371  -5.1944  -5.1791  -5.0353
    -3.9870  -3.9061  -3.8896  -3.8750  -3.8713  -3.8529  -3.8306  -3.8131
    -3.4005  -3.3774  -3.3561  -3.3524  -3.3227  -3.3002  -3.2718  -3.2581
    -0.6230  -0.5305  -0.5026  -0.4666  -0.4219  -0.3856  -0.3625  -0.3263
    -0.3143  -0.2890  -0.2590  -0.2288  -0.2077  -0.2000  -0.1796  -0.1562
    -0.1228  -0.1042  -0.0591  -0.0359   0.0258   0.1044   0.1422   0.1600
     0.2101   0.2363   0.2560   0.3024   0.3233   0.3478   0.4121   0.4302
     0.5785   0.6390   0.6865   0.7123   0.7308   0.7626   0.7748   0.8115
     0.8281   0.8482   0.8736   0.8891   0.9104   0.9361   0.9518   1.0044
     1.0395   1.0555   1.0714   1.0869   1.1158   1.1294   1.1685   1.1798
     1.2553   1.2723   1.2783   1.3023   1.3245   1.3373   1.3480   1.3782
     1.4128   1.4159   1.4222   1.4484   1.4598   1.4808   1.4927   1.5019
     1.5129   1.5382   1.5472   1.5571   1.5918   1.6162   1.6418   1.6628

          k =-0.3701 0.3677-0.3678 (311363 PWs)   bands (ev):

   -18.0621 -17.9762 -17.9672 -17.9620 -17.9124 -17.8998 -17.8692 -17.8648
   -15.8383 -15.7520 -15.7505 -15.7472 -15.7458 -15.6543 -15.6474 -15.6063
   -14.3721 -14.3521 -14.3510 -14.3329 -14.3277 -14.3268 -14.3227 -14.3192
   -14.3128 -14.3128 -14.3107 -14.3089 -14.3080 -14.3069 -14.3038 -14.2877
   -14.2872 -14.2864 -14.2854 -14.2847 -14.2810 -14.2809 -14.2772 -14.2748
   -14.2725 -14.2716 -14.2712 -14.2710 -14.2705 -14.2654 -14.2619 -14.2586
   -14.2532 -14.2516 -14.2470 -14.2438 -14.2405 -14.2390 -14.2317 -14.2273
    -9.8535  -9.8111  -9.8009  -9.7679  -9.7412  -9.7239  -9.6997  -9.6593
    -9.5855  -9.4954  -9.4843  -9.4261  -9.4151  -9.3846  -9.3566  -9.3110
    -9.2454  -9.2000  -9.1854  -9.1789  -9.1364  -9.1033  -9.0920  -9.0690
    -9.0484  -9.0385  -9.0175  -9.0020  -8.9885  -8.9563  -8.9409  -8.9166
    -7.9023  -7.7766  -7.7643  -7.7609  -7.7547  -7.7164  -7.6852  -7.6810
    -7.1939  -7.1803  -7.1477  -7.1426  -7.1301  -7.0511  -7.0307  -6.9786
    -5.5991  -5.5618  -5.4507  -5.4444  -5.4330  -5.4231  -5.4086  -5.3969
    -5.3733  -5.3435  -5.3361  -5.3210  -5.2371  -5.1888  -5.1814  -5.0360
    -3.9867  -3.9065  -3.8899  -3.8753  -3.8711  -3.8526  -3.8304  -3.8132
    -3.4003  -3.3774  -3.3562  -3.3524  -3.3224  -3.3005  -3.2717  -3.2582
    -0.5905  -0.5441  -0.4799  -0.4450  -0.4069  -0.3933  -0.3756  -0.3620
    -0.3406  -0.3023  -0.2902  -0.2416  -0.2205  -0.1990  -0.1777  -0.1554
    -0.1182  -0.0962  -0.0858  -0.0414   0.0814   0.1300   0.1501   0.2002
     0.2332   0.2548   0.2584   0.2715   0.3241   0.3443   0.3644   0.4258
     0.6050   0.6441   0.6840   0.6985   0.7281   0.7533   0.7795   0.8047
     0.8374   0.8449   0.8768   0.8987   0.9095   0.9407   0.9601   0.9825
     1.0440   1.0510   1.0647   1.0948   1.1069   1.1220   1.1658   1.1750
     1.2617   1.2671   1.2918   1.3110   1.3175   1.3345   1.3467   1.3788
     1.3995   1.4274   1.4349   1.4495   1.4633   1.4713   1.4837   1.4980
     1.5283   1.5400   1.5459   1.5721   1.5884   1.6121   1.6344   1.6525

          k = 0.3701-0.3677-0.3678 (311363 PWs)   bands (ev):

   -18.0621 -17.9762 -17.9672 -17.9620 -17.9124 -17.8998 -17.8692 -17.8648
   -15.8383 -15.7520 -15.7505 -15.7472 -15.7458 -15.6543 -15.6474 -15.6063
   -14.3721 -14.3521 -14.3510 -14.3329 -14.3277 -14.3268 -14.3227 -14.3192
   -14.3128 -14.3128 -14.3107 -14.3089 -14.3080 -14.3069 -14.3038 -14.2877
   -14.2872 -14.2864 -14.2854 -14.2847 -14.2810 -14.2809 -14.2772 -14.2748
   -14.2725 -14.2716 -14.2712 -14.2710 -14.2705 -14.2654 -14.2619 -14.2586
   -14.2532 -14.2516 -14.2470 -14.2438 -14.2405 -14.2390 -14.2317 -14.2273
    -9.8531  -9.8091  -9.7975  -9.7698  -9.7422  -9.7293  -9.7001  -9.6588
    -9.5877  -9.4930  -9.4791  -9.4293  -9.4230  -9.3686  -9.3544  -9.3201
    -9.2420  -9.2014  -9.1921  -9.1731  -9.1423  -9.1034  -9.0928  -9.0664
    -9.0473  -9.0373  -9.0152  -9.0022  -8.9932  -8.9516  -8.9436  -8.9164
    -7.9021  -7.7766  -7.7642  -7.7606  -7.7549  -7.7165  -7.6857  -7.6809
    -7.1939  -7.1803  -7.1476  -7.1427  -7.1301  -7.0511  -7.0307  -6.9786
    -5.5890  -5.5747  -5.4555  -5.4447  -5.4323  -5.4213  -5.3973  -5.3901
    -5.3744  -5.3503  -5.3353  -5.3249  -5.2390  -5.1970  -5.1749  -5.0339
    -3.9867  -3.9066  -3.8901  -3.8742  -3.8718  -3.8527  -3.8304  -3.8132
    -3.4004  -3.3775  -3.3561  -3.3525  -3.3227  -3.3004  -3.2715  -3.2581
    -0.6299  -0.5346  -0.4705  -0.4437  -0.4119  -0.3772  -0.3621  -0.3542
    -0.3299  -0.3005  -0.2679  -0.2385  -0.2172  -0.2024  -0.1909  -0.1635
    -0.1430  -0.1007  -0.0658  -0.0212   0.0405   0.1141   0.1572   0.1838
     0.2314   0.2526   0.2639   0.2779   0.3333   0.3535   0.3637   0.4276
     0.6034   0.6306   0.6844   0.7046   0.7307   0.7577   0.7846   0.8044
     0.8201   0.8524   0.8687   0.8971   0.9104   0.9347   0.9648   0.9953
     1.0329   1.0500   1.0692   1.0953   1.1120   1.1251   1.1726   1.1807
     1.2504   1.2643   1.2944   1.3028   1.3238   1.3292   1.3526   1.3806
     1.4101   1.4191   1.4354   1.4480   1.4588   1.4750   1.4834   1.5047
     1.5187   1.5309   1.5483   1.5822   1.5912   1.6142   1.6310   1.6505

     highest occupied level (ev):     2.0608

!    total energy              =  -16707.44817960 Ry
     Harris-Foulkes estimate   =  -16707.44817960 Ry
     estimated scf accuracy    <          1.3E-09 Ry

     total all-electron energy =   -678114.507864 Ry

     The total energy is the sum of the following terms:

     one-electron contribution =    -957.51556100 Ry
     hartree contribution      =     677.48867100 Ry
     xc contribution           =    -795.77753932 Ry
     ewald contribution        =   -1213.02207249 Ry
     DFT-D3 Dispersion         =      -0.64167000 Ry
     one-center paw contrib.   =  -14417.98000779 Ry

     convergence has been achieved in  10 iterations

     Forces acting on atoms (cartesian axes, Ry/au):

     atom    1 type  1   force =     0.00037339   -0.00005351   -0.00018476
     atom    2 type  1   force =     0.00043816    0.00073380    0.00062751
     atom    3 type  1   force =     0.00035886   -0.00039756    0.00047624
     atom    4 type  1   force =    -0.00009414    0.00020503   -0.00084297
     atom    5 type  1   force =     0.00020822    0.00048957    0.00002122
     atom    6 type  1   force =    -0.00006183    0.00003075    0.00029975
     atom    7 type  1   force =    -0.00042342    0.00006687    0.00068096
     atom    8 type  1   force =    -0.00003587   -0.00021955   -0.00031227
     atom    9 type  2   force =     0.00020125    0.00021829    0.00023260
     atom   10 type  2   force =    -0.00040109    0.00021023    0.00007611
     atom   11 type  2   force =    -0.00036260    0.00020323    0.00025650
     atom   12 type  2   force =     0.00003348    0.00039408   -0.00029287
     atom   13 type  2   force =    -0.00061898   -0.00007411   -0.00014837
     atom   14 type  2   force =    -0.00020969    0.00023710    0.00010277
     atom   15 type  2   force =     0.00057922    0.00059636    0.00074480
     atom   16 type  2   force =     0.00009092    0.00034794   -0.00052047
     atom   17 type  2   force =    -0.00058820    0.00096563    0.00007954
     atom   18 type  2   force =    -0.00105873   -0.00053465   -0.00003453
     atom   19 type  2   force =    -0.00014854    0.00059981   -0.00081864
     atom   20 type  2   force =     0.00061547   -0.00047026    0.00001523
     atom   21 type  2   force =     0.00013051   -0.00013630    0.00000471
     atom   22 type  2   force =    -0.00006808   -0.00057406   -0.00061245
     atom   23 type  2   force =     0.00149265    0.00004505   -0.00015040
     atom   24 type  2   force =     0.00040235    0.00029471   -0.00004185
     atom   25 type  2   force =    -0.00015345   -0.00022446    0.00072912
     atom   26 type  2   force =     0.00006073   -0.00016875   -0.00096459
     atom   27 type  2   force =     0.00049231    0.00043021   -0.00039195
     atom   28 type  2   force =    -0.00038560    0.00059053    0.00022324
     atom   29 type  2   force =    -0.00015607   -0.00057345    0.00027779
     atom   30 type  2   force =    -0.00013877   -0.00063969   -0.00004245
     atom   31 type  2   force =    -0.00011328    0.00005158   -0.00063298
     atom   32 type  2   force =     0.00046009   -0.00093976    0.00030412
     atom   33 type  3   force =    -0.00410110   -0.00027554   -0.00079462
     atom   34 type  3   force =     0.00190229   -0.00064205    0.00103691
     atom   35 type  3   force =    -0.00208279    0.00052694    0.00146245
     atom   36 type  3   force =    -0.00048403    0.00330282    0.00463332
     atom   37 type  3   force =     0.00706502    0.00031490   -0.00017857
     atom   38 type  3   force =    -0.00790051    0.00075292   -0.00310883
     atom   39 type  3   force =    -0.00379701   -0.00040171   -0.00106591
     atom   40 type  3   force =     0.00219839    0.00363007    0.00156507
     atom   41 type  4   force =     0.00160847    0.00157158    0.00039075
     atom   42 type  4   force =     0.00180415    0.00001102    0.00072985
     atom   43 type  4   force =    -0.00173636    0.00050376    0.00038198
     atom   44 type  4   force =    -0.00051267    0.00130253   -0.00338219
     atom   45 type  4   force =    -0.00283252   -0.00077789   -0.00094552
     atom   46 type  4   force =     0.00255611    0.00026161    0.00068280
     atom   47 type  4   force =     0.00164467    0.00054670    0.00080880
     atom   48 type  4   force =     0.00044949   -0.00367287    0.00102144
     atom   49 type  4   force =     0.00159923   -0.00253460    0.00018582
     atom   50 type  4   force =     0.00096551   -0.00137184   -0.00010068
     atom   51 type  4   force =     0.00161647   -0.00068571   -0.00019853
     atom   52 type  4   force =    -0.00078195   -0.00338851    0.00102443
     atom   53 type  4   force =    -0.00391547    0.00170247    0.00070068
     atom   54 type  4   force =     0.00355737   -0.00008492    0.00041985
     atom   55 type  4   force =     0.00101812    0.00054324    0.00075829
     atom   56 type  4   force =     0.00005112   -0.00154001   -0.00113227
     atom   57 type  5   force =    -0.00085755   -0.00041636   -0.00145980
     atom   58 type  5   force =    -0.00180369   -0.00085567    0.00064190
     atom   59 type  5   force =    -0.00021237   -0.00059925    0.00066156
     atom   60 type  5   force =    -0.00040825    0.00109109   -0.00245990
     atom   61 type  5   force =    -0.00167579    0.00041747   -0.00022050
     atom   62 type  5   force =     0.00139609    0.00010837    0.00133974
     atom   63 type  5   force =     0.00118947    0.00021698   -0.00020107
     atom   64 type  5   force =    -0.00062355   -0.00152672   -0.00133288
     atom   65 type  5   force =     0.00144641   -0.00039862    0.00112458
     atom   66 type  5   force =    -0.00111251    0.00280958   -0.00019535
     atom   67 type  5   force =     0.00017288   -0.00183999   -0.00031508
     atom   68 type  5   force =    -0.00172338   -0.00190822    0.00344747
     atom   69 type  5   force =     0.00018314    0.00241330    0.00019895
     atom   70 type  5   force =     0.00015226   -0.00077575    0.00029654
     atom   71 type  5   force =    -0.00014379   -0.00026175    0.00074035
     atom   72 type  5   force =    -0.00041759    0.00221927    0.00008817
     atom   73 type  5   force =     0.00070050    0.00147564   -0.00119670
     atom   74 type  5   force =     0.00061872   -0.00072896   -0.00059040
     atom   75 type  5   force =     0.00224880    0.00014149   -0.00078513
     atom   76 type  5   force =     0.00178982   -0.00127565   -0.00006630
     atom   77 type  5   force =     0.00008479   -0.00077350   -0.00080022
     atom   78 type  5   force =    -0.00018642    0.00131937    0.00078023
     atom   79 type  5   force =    -0.00031338   -0.00086227    0.00188709
     atom   80 type  5   force =    -0.00001733    0.00095245   -0.00023533
     atom   81 type  5   force =     0.00051104    0.00054959   -0.00035094
     atom   82 type  5   force =     0.00018776   -0.00262841   -0.00146524
     atom   83 type  5   force =     0.00147036    0.00103521   -0.00091413
     atom   84 type  5   force =     0.00115646    0.00118111   -0.00274448
     atom   85 type  5   force =     0.00079031   -0.00184817    0.00022662
     atom   86 type  5   force =     0.00019859    0.00139752   -0.00078895
     atom   87 type  5   force =     0.00063578    0.00178876    0.00003792
     atom   88 type  5   force =     0.00058086   -0.00082306    0.00051563
     atom   89 type  5   force =    -0.00119120    0.00058787   -0.00009710
     atom   90 type  5   force =    -0.00150499    0.00138010    0.00023053
     atom   91 type  5   force =    -0.00201843   -0.00140084    0.00050779
     atom   92 type  5   force =     0.00041486   -0.00155199    0.00075872
     atom   93 type  5   force =    -0.00019221    0.00099172    0.00058851
     atom   94 type  5   force =    -0.00098938   -0.00163753    0.00047140
     atom   95 type  5   force =     0.00010883   -0.00115904   -0.00257973
     atom   96 type  5   force =    -0.00145715   -0.00010472    0.00019957

     Total force =     0.023095     Total SCF correction =     0.000101


     Computing stress (Cartesian axis) and pressure

          total   stress  (Ry/bohr**3)                   (kbar)     P=   -0.21
  -0.00000070  -0.00000117  -0.00001299         -0.10     -0.17     -1.91
  -0.00000117   0.00000409  -0.00000045         -0.17      0.60     -0.07
  -0.00001299  -0.00000045  -0.00000769         -1.91     -0.07     -1.13


     number of scf cycles    =  16
     number of bfgs steps    =  15

     enthalpy old            =  -16707.4478549076 Ry
     enthalpy new            =  -16707.4481795951 Ry

     CASE: enthalpy_new < enthalpy_old

     new trust radius        =       0.0301778018 bohr
     new conv_thr            =       0.0000000032 Ry

     new unit-cell volume =  14052.80175 a.u.^3 (  2082.41035 Ang^3 )
     density =      4.04274 g/cm^3

CELL_PARAMETERS (alat= 23.71984200)
   1.013040259   0.000000000   0.000000000
   0.000000000   1.019995323   0.000000000
   0.000000000   0.000000000   1.019066814

ATOMIC_POSITIONS (crystal)
Pb      -0.016283084  -0.019980369   0.002808022
Pb       0.484857835  -0.025628016   0.004632991
Pb      -0.009674723   0.483335544   0.006198102
Pb       0.023745655  -0.014606310   0.509928545
Pb       0.484647914   0.478567401   0.000277932
Pb       0.020637311   0.485034186   0.505528734
Pb       0.524145935  -0.019160536   0.505739283
Pb       0.520261101   0.485764861   0.505888923
I        0.235862863  -0.007428937  -0.032603413
I        0.735280036  -0.015343056   0.040355241
I        0.238759565   0.485732776   0.064658289
I        0.270707428  -0.029544838   0.522267678
I        0.738493421   0.483116066  -0.044616835
I        0.273036760   0.484413433   0.458773428
I        0.770073378  -0.010740997   0.474298084
I        0.773748116   0.464391031   0.542946544
I       -0.027413920   0.230812592   0.002665147
I        0.473262992   0.230428247   0.010082321
I       -0.018432120   0.729978943   0.001523034
I        0.043400441   0.235484435   0.502850375
I        0.472372483   0.730284168  -0.001610316
I        0.016523109   0.734925350   0.510082965
I        0.527035719   0.232168238   0.505782030
I        0.543139460   0.732178290   0.515480011
I        0.029419927  -0.029871016   0.253891677
I        0.473303717  -0.033971226   0.257492678
I       -0.039584467   0.479264172   0.258086507
I       -0.032999013  -0.029293340   0.753840218
I        0.547859409   0.481222567   0.250579323
I        0.049493179   0.479193024   0.758558588
I        0.535294251  -0.026822228   0.757819166
I        0.456484811   0.472730649   0.751485829
C        0.244869452   0.254548308   0.260182809
C        0.755971500   0.259919507   0.262844977
C        0.251291255   0.749926161   0.272410103
C        0.258120028   0.250420152   0.733927281
C        0.755975406   0.787288570   0.256252275
C        0.256169075   0.778237962   0.746211381
C        0.752565028   0.256911255   0.755330898
C        0.753230776   0.749276067   0.740432182
N        0.187996757   0.206714015   0.188965963
N        0.679630051   0.213947002   0.210957736
N        0.162138108   0.698325222   0.269803223
N        0.190077720   0.232198194   0.809001049
N        0.664525640   0.739758625   0.256797148
N        0.170931890   0.737791264   0.787638385
N        0.694986252   0.208271335   0.825265228
N        0.678720903   0.723272199   0.806378103
N        0.316616107   0.209071151   0.318277680
N        0.842359250   0.213329649   0.294146588
N        0.342777229   0.710640272   0.246050325
N        0.343976501   0.195759487   0.717972707
N        0.848136209   0.741644900   0.249510567
N        0.337309649   0.724298170   0.712979143
N        0.813428234   0.210752430   0.686554424
N        0.837574342   0.692817747   0.722396548
H        0.231722372   0.337991052   0.272689170
H        0.747300863   0.342890732   0.281066403
H        0.249404095   0.831170345   0.298552067
H        0.242723628   0.316306114   0.682075769
H        0.755883243   0.872170792   0.262441081
H        0.258733817   0.862894838   0.736873034
H        0.748676601   0.342124745   0.753780013
H        0.745647296   0.823519681   0.699036010
H        0.195612776   0.129073280   0.172502757
H        0.685923151   0.138758911   0.183816463
H        0.157369096   0.622494209   0.245382927
H        0.199774866   0.171638024   0.860442649
H        0.654367024   0.660183458   0.252605295
H        0.158298310   0.659014597   0.793909039
H        0.691507456   0.128818732   0.830887398
H        0.682589470   0.655757314   0.849698164
H        0.132912192   0.246139970   0.146145876
H        0.616072671   0.256614767   0.187428171
H        0.096782971   0.731194679   0.301935029
H        0.125703739   0.279219048   0.817031100
H        0.599151383   0.784999465   0.265712301
H        0.111563185   0.785264352   0.812186149
H        0.649306358   0.249838991   0.875992579
H        0.616193583   0.771801605   0.817805095
H        0.334688376   0.131451241   0.312102568
H        0.856032971   0.135565756   0.283559349
H        0.351067049   0.635497478   0.220478734
H        0.364197224   0.133700289   0.763836163
H        0.858771728   0.662496003   0.243972677
H        0.344535057   0.644829107   0.721646158
H        0.823819811   0.131579373   0.683959704
H        0.849286811   0.622011125   0.756912300
H        0.357717047   0.250607672   0.372988647
H        0.897977645   0.253240085   0.335624404
H        0.405758501   0.759834385   0.242048826
H        0.393775224   0.215019000   0.657782382
H        0.913205739   0.788245122   0.245467179
H        0.398219905   0.761421340   0.676538510
H        0.854603646   0.255067966   0.634381435
H        0.891349190   0.716121535   0.667401821



     Writing output data file FAPbI83_vcrelax2.save/
     NEW-OLD atomic charge density approx. for the potential
     extrapolated charge  431.75731, renormalised to  432.00000

     total cpu time spent up to now is   589116.6 secs

     Self-consistent Calculation

     iteration #  1     ecut=   120.00 Ry     beta= 0.70
     Davidson diagonalization with overlap
     ethr =  1.00E-06,  avg # of iterations =  4.0

     total cpu time spent up to now is   599118.9 secs

     total energy              =  -16707.44775689 Ry
     Harris-Foulkes estimate   =  -16707.83629721 Ry
     estimated scf accuracy    <       0.00148540 Ry

     iteration #  2     ecut=   120.00 Ry     beta= 0.70
     Davidson diagonalization with overlap
