
     Program PWSCF v.6.4 starts on 15May2020 at 14:43:22 

     This program is part of the open-source Quantum ESPRESSO suite
     for quantum simulation of materials; please cite
         "P. Giannozzi et al., J. Phys.:Condens. Matter 21 395502 (2009);
         "P. Giannozzi et al., J. Phys.:Condens. Matter 29 465901 (2017);
          URL http://www.quantum-espresso.org", 
     in publications or presentations arising from this work. More details at
     http://www.quantum-espresso.org/quote

     Parallel version (MPI), running on    32 processors

     MPI processes distributed on     1 nodes
     R & G space division:  proc/nbgrp/npool/nimage =      32
     Waiting for input...
     Reading input from standard input
     Message from routine read_cards :
     DEPRECATED: no units specified in CELL_PARAMETERS card

     Current dimensions of program PWSCF are:
     Max number of different atomic species (ntypx) = 10
     Max number of k-points (npk) =  40000
     Max angular momentum in pseudopotentials (lmaxx) =  3
               file Pb.pbe-dn-kjpaw_psl.1.0.0.UPF: wavefunction(s)  6S 6P 5D renormalized
               file I.pbe-n-kjpaw_psl.1.0.0.UPF: wavefunction(s)  5S renormalized
               file C.pbe-n-kjpaw_psl.1.0.0.UPF: wavefunction(s)  2S 2P renormalized
               file N.pbe-n-kjpaw_psl.1.0.0.UPF: wavefunction(s)  2S renormalized
               file H.pbe-kjpaw_psl.1.0.0.UPF: wavefunction(s)  1S renormalized

     --------------------------------------------
     Parameters for DFT-D3 Dispersion Correction:
     --------------------------------------------
       Reference C6 values for interpolation: 

         atom   Coordination number   C6
         H          0.912             6.05
         H          0.000            15.18
         C          0.000            98.23
         C          0.987            86.49
         C          1.998            58.72
         C          2.999            51.56
         C          3.984            36.41
         N          0.000            50.54
         N          0.994            44.25
         N          2.014            39.35
         N          2.990            31.16
         I          0.000           703.93
         I          0.997           717.00
         Pb         0.000          1477.63
         Pb         0.938          1266.00
         Pb         1.936          1088.91
         Pb         2.908          1048.37
         Pb         3.910           910.57

       Values used:

         atom   Coordination number  R0_AB[au]  C6      C8
         Pb         4.805            4.041    910.57 144158.40
         Pb         4.805            4.041    910.57 144158.40
         Pb         4.709            4.041    910.57 144158.74
         Pb         4.794            4.041    910.57 144158.43
         Pb         4.696            4.041    910.58 144158.80
         Pb         4.750            4.041    910.57 144158.56
         Pb         4.838            4.041    910.57 144158.34
         Pb         4.700            4.041    910.57 144158.78
         I          1.918            3.532    717.00  65855.99
         I          1.951            3.532    717.00  65856.00
         I          1.858            3.532    717.00  65855.98
         I          1.945            3.532    717.00  65855.99
         I          1.820            3.532    717.00  65855.97
         I          1.859            3.532    717.00  65855.98
         I          1.935            3.532    717.00  65855.99
         I          1.884            3.532    717.00  65855.99
         I          1.901            3.532    717.00  65855.99
         I          1.888            3.532    717.00  65855.99
         I          1.964            3.532    717.00  65856.00
         I          1.929            3.532    717.00  65855.99
         I          1.971            3.532    717.00  65856.00
         I          2.029            3.532    717.00  65856.00
         I          1.975            3.532    717.00  65856.00
         I          1.979            3.532    717.00  65856.00
         I          1.847            3.532    717.00  65855.98
         I          1.946            3.532    717.00  65855.99
         I          1.904            3.532    717.00  65855.99
         I          1.948            3.532    717.00  65855.99
         I          1.801            3.532    717.00  65855.97
         I          1.867            3.532    717.00  65855.98
         I          1.932            3.532    717.00  65855.99
         I          1.916            3.532    717.00  65855.99
         C          3.067            2.750     51.06   1476.87
         C          3.068            2.750     51.06   1476.63
         C          3.068            2.750     51.06   1476.71
         C          3.070            2.750     51.05   1476.45
         C          3.077            2.750     51.01   1475.32
         C          3.069            2.750     51.05   1476.55
         C          3.069            2.750     51.05   1476.53
         C          3.069            2.750     51.05   1476.57
         N          3.100            2.478     31.23    689.06
         N          3.098            2.478     31.24    689.08
         N          3.110            2.478     31.23    688.95
         N          3.101            2.478     31.23    689.05
         N          3.103            2.478     31.23    689.02
         N          3.102            2.478     31.23    689.04
         N          3.098            2.478     31.24    689.08
         N          3.109            2.478     31.23    688.95
         N          3.100            2.478     31.23    689.06
         N          3.102            2.478     31.23    689.03
         N          3.111            2.478     31.23    688.93
         N          3.106            2.478     31.23    688.99
         N          3.109            2.478     31.23    688.95
         N          3.105            2.478     31.23    689.00
         N          3.099            2.478     31.24    689.07
         N          3.109            2.478     31.23    688.96
         H          1.022            2.062      6.16     74.50
         H          1.021            2.062      6.16     74.50
         H          1.016            2.062      6.17     74.55
         H          1.016            2.062      6.17     74.55
         H          1.024            2.062      6.16     74.47
         H          1.021            2.062      6.16     74.51
         H          1.022            2.062      6.16     74.49
         H          1.015            2.062      6.17     74.56
         H          1.024            2.062      6.16     74.47
         H          1.045            2.062      6.15     74.29
         H          1.029            2.062      6.16     74.43
         H          1.055            2.062      6.14     74.21
         H          1.063            2.062      6.13     74.16
         H          1.051            2.062      6.14     74.25
         H          1.029            2.062      6.16     74.43
         H          1.060            2.062      6.14     74.17
         H          1.048            2.062      6.14     74.26
         H          1.036            2.062      6.15     74.37
         H          1.040            2.062      6.15     74.33
         H          1.042            2.062      6.15     74.31
         H          1.043            2.062      6.15     74.31
         H          1.033            2.062      6.15     74.40
         H          1.040            2.062      6.15     74.34
         H          1.044            2.062      6.15     74.30
         H          1.036            2.062      6.15     74.36
         H          1.024            2.062      6.16     74.47
         H          1.027            2.062      6.16     74.45
         H          1.026            2.062      6.16     74.45
         H          1.059            2.062      6.14     74.19
         H          1.066            2.062      6.13     74.13
         H          1.033            2.062      6.15     74.39
         H          1.023            2.062      6.16     74.48
         H          1.049            2.062      6.14     74.26
         H          1.042            2.062      6.15     74.32
         H          1.048            2.062      6.14     74.27
         H          1.089            2.062      6.12     73.99
         H          1.051            2.062      6.14     74.24
         H          1.045            2.062      6.15     74.29
         H          1.036            2.062      6.15     74.37
         H          1.094            2.062      6.12     73.96

         Molecular C6 ( Ry / a.u.^6 ) =   1270656.00


     Subspace diagonalization in iterative solution of the eigenvalue problem:
     a serial algorithm will be used


     Parallelization info
     --------------------
     sticks:   dense  smooth     PW     G-vecs:    dense   smooth      PW
     Min         693     693    179                77991    77991   10209
     Max         694     694    180                77998    77998   10212
     Sum       22195   22195   5733              2495807  2495807  326713



     bravais-lattice index     =            0
     lattice parameter (alat)  =      23.7198  a.u.
     unit-cell volume          =   14052.8018 (a.u.)^3
     number of atoms/cell      =           96
     number of atomic types    =            5
     number of electrons       =       432.00
     number of Kohn-Sham states=          216
     kinetic-energy cutoff     =     120.0000  Ry
     charge density cutoff     =     480.0000  Ry
     convergence threshold     =      1.0E-07
     mixing beta               =       0.7000
     number of iterations used =            8  plain     mixing
     Exchange-correlation      = SLA PW PBX PBC ( 1  4  3  4 0 0)
     nstep                     =          100


     celldm(1)=  23.719842  celldm(2)=   0.000000  celldm(3)=   0.000000
     celldm(4)=   0.000000  celldm(5)=   0.000000  celldm(6)=   0.000000

     crystal axes: (cart. coord. in units of alat)
               a(1) = (   1.013040   0.000000   0.000000 )  
               a(2) = (   0.000000   1.019995   0.000000 )  
               a(3) = (   0.000000   0.000000   1.019067 )  

     reciprocal axes: (cart. coord. in units 2 pi/alat)
               b(1) = (  0.987128  0.000000  0.000000 )  
               b(2) = (  0.000000  0.980397  0.000000 )  
               b(3) = (  0.000000  0.000000  0.981290 )  


     PseudoPot. # 1 for Pb read from file:
     ../Pseudopotential/Pb.pbe-dn-kjpaw_psl.1.0.0.UPF
     MD5 check sum: 684fc8fbce61a260853528575e4d9ab7
     Pseudo is Projector augmented-wave + core cor, Zval = 14.0
     Generated using "atomic" code by A. Dal Corso v.6.3
     Shape of augmentation charge: PSQ
     Using radial grid of 1281 points,  6 beta functions with: 
                l(1) =   0
                l(2) =   0
                l(3) =   1
                l(4) =   1
                l(5) =   2
                l(6) =   2
     Q(r) pseudized with 0 coefficients 


     PseudoPot. # 2 for I  read from file:
     ../Pseudopotential/I.pbe-n-kjpaw_psl.1.0.0.UPF
     MD5 check sum: cd3d296c3308a581e1559a0c8a554cb5
     Pseudo is Projector augmented-wave + core cor, Zval =  7.0
     Generated using "atomic" code by A. Dal Corso v.6.3
     Shape of augmentation charge: PSQ
     Using radial grid of 1247 points,  6 beta functions with: 
                l(1) =   0
                l(2) =   0
                l(3) =   1
                l(4) =   1
                l(5) =   2
                l(6) =   2
     Q(r) pseudized with 0 coefficients 


     PseudoPot. # 3 for C  read from file:
     ../Pseudopotential/C.pbe-n-kjpaw_psl.1.0.0.UPF
     MD5 check sum: 5f16ad9a65e90284d1d834d4ab3b0f7d
     Pseudo is Projector augmented-wave + core cor, Zval =  4.0
     Generated using "atomic" code by A. Dal Corso v.6.3
     Shape of augmentation charge: PSQ
     Using radial grid of 1073 points,  4 beta functions with: 
                l(1) =   0
                l(2) =   0
                l(3) =   1
                l(4) =   1
     Q(r) pseudized with 0 coefficients 


     PseudoPot. # 4 for N  read from file:
     ../Pseudopotential/N.pbe-n-kjpaw_psl.1.0.0.UPF
     MD5 check sum: 14c48229446f9f2d411169a3abcbc3fa
     Pseudo is Projector augmented-wave + core cor, Zval =  5.0
     Generated using "atomic" code by A. Dal Corso v.6.3
     Shape of augmentation charge: PSQ
     Using radial grid of 1085 points,  4 beta functions with: 
                l(1) =   0
                l(2) =   0
                l(3) =   1
                l(4) =   1
     Q(r) pseudized with 0 coefficients 


     PseudoPot. # 5 for H  read from file:
     ../Pseudopotential/H.pbe-kjpaw_psl.1.0.0.UPF
     MD5 check sum: d81a744832360e4a8af0b0b5b123bc2a
     Pseudo is Projector augmented-wave, Zval =  1.0
     Generated using "atomic" code by A. Dal Corso v.6.3MaX
     Shape of augmentation charge: PSQ
     Using radial grid of  929 points,  2 beta functions with: 
                l(1) =   0
                l(2) =   0
     Q(r) pseudized with 0 coefficients 


     atomic species   valence    mass     pseudopotential
        Pb            14.00   207.97600     Pb( 1.00)
        I              7.00   126.90400     I ( 1.00)
        C              4.00    12.00000     C ( 1.00)
        N              5.00    14.00300     N ( 1.00)
        H              1.00     1.00700     H ( 1.00)

     No symmetry found



   Cartesian axes

     site n.     atom                  positions (alat units)
         1           Pb  tau(   1) = (  -0.0164954  -0.0203799   0.0028616  )
         2           Pb  tau(   2) = (   0.4911805  -0.0261405   0.0047213  )
         3           Pb  tau(   3) = (  -0.0098009   0.4930000   0.0063163  )
         4           Pb  tau(   4) = (   0.0240553  -0.0148984   0.5196513  )
         5           Pb  tau(   5) = (   0.4909678   0.4881365   0.0002832  )
         6           Pb  tau(   6) = (   0.0209064   0.4947326   0.5151676  )
         7           Pb  tau(   7) = (   0.5309809  -0.0195437   0.5153821  )
         8           Pb  tau(   8) = (   0.5270454   0.4954779   0.5155346  )
         9           I   tau(   9) = (   0.2389386  -0.0075775  -0.0332251  )
        10           I   tau(  10) = (   0.7448683  -0.0156498   0.0411247  )
        11           I   tau(  11) = (   0.2418731   0.4954452   0.0658911  )
        12           I   tau(  12) = (   0.2742375  -0.0301356   0.5322257  )
        13           I   tau(  13) = (   0.7481236   0.4927761  -0.0454675  )
        14           I   tau(  14) = (   0.2765972   0.4940994   0.4675208  )
        15           I   tau(  15) = (   0.7801153  -0.0109558   0.4833414  )
        16           I   tau(  16) = (   0.7838380   0.4736767   0.5532988  )
        17           I   tau(  17) = (  -0.0277714   0.2354278   0.0027160  )
        18           I   tau(  18) = (   0.4794345   0.2350357   0.0102746  )
        19           I   tau(  19) = (  -0.0186725   0.7445751   0.0015521  )
        20           I   tau(  20) = (   0.0439664   0.2401930   0.5124381  )
        21           I   tau(  21) = (   0.4785323   0.7448864  -0.0016410  )
        22           I   tau(  22) = (   0.0167386   0.7496204   0.5198086  )
        23           I   tau(  23) = (   0.5339084   0.2368105   0.5154257  )
        24           I   tau(  24) = (   0.5502221   0.7468184   0.5253086  )
        25           I   tau(  25) = (   0.0298036  -0.0304683   0.2587326  )
        26           I   tau(  26) = (   0.4794757  -0.0346505   0.2624022  )
        27           I   tau(  27) = (  -0.0401007   0.4888472   0.2630074  )
        28           I   tau(  28) = (  -0.0334293  -0.0298791   0.7682135  )
        29           I   tau(  29) = (   0.5550036   0.4908448   0.2553571  )
        30           I   tau(  30) = (   0.0501386   0.4887746   0.7730219  )
        31           I   tau(  31) = (   0.5422746  -0.0273585   0.7722684  )
        32           I   tau(  32) = (   0.4624375   0.4821831   0.7658143  )
        33           C   tau(  33) = (   0.2480626   0.2596381   0.2651437  )
        34           C   tau(  34) = (   0.7658296   0.2651167   0.2678566  )
        35           C   tau(  35) = (   0.2545682   0.7649212   0.2776041  )
        36           C   tau(  36) = (   0.2614860   0.2554274   0.7479209  )
        37           C   tau(  37) = (   0.7658335   0.8030307   0.2611382  )
        38           C   tau(  38) = (   0.2595096   0.7937991   0.7604393  )
        39           C   tau(  39) = (   0.7623787   0.2620483   0.7697327  )
        40           C   tau(  40) = (   0.7630531   0.7642581   0.7545499  )
        41           N   tau(  41) = (   0.1904483   0.2108473   0.1925689  )
        42           N   tau(  42) = (   0.6884926   0.2182249   0.2149800  )
        43           N   tau(  43) = (   0.1642524   0.7122885   0.2749475  )
        44           N   tau(  44) = (   0.1925564   0.2368411   0.8244261  )
        45           N   tau(  45) = (   0.6731912   0.7545503   0.2616935  )
        46           N   tau(  46) = (   0.1731609   0.7525436   0.8026561  )
        47           N   tau(  47) = (   0.7040491   0.2124358   0.8410004  )
        48           N   tau(  48) = (   0.6875716   0.7377343   0.8217532  )
        49           N   tau(  49) = (   0.3207449   0.2132516   0.3243462  )
        50           N   tau(  50) = (   0.8533438   0.2175952   0.2997550  )
        51           N   tau(  51) = (   0.3472471   0.7248498   0.2507417  )
        52           N   tau(  52) = (   0.3484620   0.1996738   0.7316622  )
        53           N   tau(  53) = (   0.8591961   0.7564743   0.2542679  )
        54           N   tau(  54) = (   0.3417083   0.7387807   0.7265734  )
        55           N   tau(  55) = (   0.8240355   0.2149665   0.6996448  )
        56           N   tau(  56) = (   0.8484965   0.7066709   0.7361703  )
        57           H   tau(  57) = (   0.2347441   0.3447493   0.2778885  )
        58           H   tau(  58) = (   0.7570459   0.3497469   0.2864254  )
        59           H   tau(  59) = (   0.2526564   0.8477899   0.3042445  )
        60           H   tau(  60) = (   0.2458888   0.3226308   0.6950808  )
        61           H   tau(  61) = (   0.7657402   0.8896101   0.2674450  )
        62           H   tau(  62) = (   0.2621078   0.8801487   0.7509229  )
        63           H   tau(  63) = (   0.7584395   0.3489656   0.7681522  )
        64           H   tau(  64) = (   0.7553707   0.8399862   0.7123644  )
        65           H   tau(  65) = (   0.1981636   0.1316541   0.1757918  )
        66           H   tau(  66) = (   0.6948678   0.1415334   0.1873213  )
        67           H   tau(  67) = (   0.1594212   0.6349412   0.2500616  )
        68           H   tau(  68) = (   0.2023800   0.1750700   0.8768485  )
        69           H   tau(  69) = (   0.6629001   0.6733840   0.2574217  )
        70           H   tau(  70) = (   0.1603626   0.6721918   0.8090464  )
        71           H   tau(  71) = (   0.7005249   0.1313945   0.8467298  )
        72           H   tau(  72) = (   0.6914906   0.6688694   0.8658992  )
        73           H   tau(  73) = (   0.1346454   0.2510616   0.1489324  )
        74           H   tau(  74) = (   0.6241064   0.2617459   0.1910018  )
        75           H   tau(  75) = (   0.0980450   0.7458152   0.3076920  )
        76           H   tau(  76) = (   0.1273429   0.2848021   0.8326093  )
        77           H   tau(  77) = (   0.6069645   0.8006958   0.2707786  )
        78           H   tau(  78) = (   0.1130180   0.8009660   0.8276720  )
        79           H   tau(  79) = (   0.6577735   0.2548346   0.8926950  )
        80           H   tau(  80) = (   0.6242289   0.7872340   0.8333980  )
        81           H   tau(  81) = (   0.3390528   0.1340797   0.3180534  )
        82           H   tau(  82) = (   0.8671959   0.1382764   0.2889659  )
        83           H   tau(  83) = (   0.3556451   0.6482045   0.2246826  )
        84           H   tau(  84) = (   0.3689465   0.1363737   0.7784001  )
        85           H   tau(  85) = (   0.8699703   0.6757428   0.2486245  )
        86           H   tau(  86) = (   0.3490279   0.6577227   0.7354057  )
        87           H   tau(  87) = (   0.8345626   0.1342103   0.6970006  )
        88           H   tau(  88) = (   0.8603617   0.6344484   0.7713442  )
        89           H   tau(  89) = (   0.3623818   0.2556187   0.3801004  )
        90           H   tau(  90) = (   0.9096875   0.2583037   0.3420237  )
        91           H   tau(  91) = (   0.4110497   0.7750275   0.2466639  )
        92           H   tau(  92) = (   0.3989102   0.2193184   0.6703242  )
        93           H   tau(  93) = (   0.9251142   0.8040063   0.2501475  )
        94           H   tau(  94) = (   0.4034128   0.7766462   0.6894379  )
        95           H   tau(  95) = (   0.8657479   0.2601681   0.6464771  )
        96           H   tau(  96) = (   0.9029726   0.7304406   0.6801270  )

     number of k points=    32
                       cart. coord. in units 2pi/alat
        k(    1) = (   0.1233910   0.1225496   0.1226612), wk =   0.0625000
        k(    2) = (   0.1233910   0.1225496   0.3679837), wk =   0.0625000
        k(    3) = (   0.1233910   0.3676487   0.1226612), wk =   0.0625000
        k(    4) = (   0.1233910   0.3676487   0.3679837), wk =   0.0625000
        k(    5) = (   0.3701729   0.1225496   0.1226612), wk =   0.0625000
        k(    6) = (   0.3701729   0.1225496   0.3679837), wk =   0.0625000
        k(    7) = (   0.3701729   0.3676487   0.1226612), wk =   0.0625000
        k(    8) = (   0.3701729   0.3676487   0.3679837), wk =   0.0625000
        k(    9) = (  -0.1233910  -0.1225496   0.1226612), wk =   0.0625000
        k(   10) = (  -0.1233910   0.1225496  -0.1226612), wk =   0.0625000
        k(   11) = (   0.1233910  -0.1225496  -0.1226612), wk =   0.0625000
        k(   12) = (  -0.1233910  -0.1225496   0.3679837), wk =   0.0625000
        k(   13) = (  -0.1233910   0.1225496  -0.3679837), wk =   0.0625000
        k(   14) = (   0.1233910  -0.1225496  -0.3679837), wk =   0.0625000
        k(   15) = (  -0.1233910  -0.3676487   0.1226612), wk =   0.0625000
        k(   16) = (  -0.1233910   0.3676487  -0.1226612), wk =   0.0625000
        k(   17) = (   0.1233910  -0.3676487  -0.1226612), wk =   0.0625000
        k(   18) = (  -0.1233910  -0.3676487   0.3679837), wk =   0.0625000
        k(   19) = (  -0.1233910   0.3676487  -0.3679837), wk =   0.0625000
        k(   20) = (   0.1233910  -0.3676487  -0.3679837), wk =   0.0625000
        k(   21) = (  -0.3701729  -0.1225496   0.1226612), wk =   0.0625000
        k(   22) = (  -0.3701729   0.1225496  -0.1226612), wk =   0.0625000
        k(   23) = (   0.3701729  -0.1225496  -0.1226612), wk =   0.0625000
        k(   24) = (  -0.3701729  -0.1225496   0.3679837), wk =   0.0625000
        k(   25) = (  -0.3701729   0.1225496  -0.3679837), wk =   0.0625000
        k(   26) = (   0.3701729  -0.1225496  -0.3679837), wk =   0.0625000
        k(   27) = (  -0.3701729  -0.3676487   0.1226612), wk =   0.0625000
        k(   28) = (  -0.3701729   0.3676487  -0.1226612), wk =   0.0625000
        k(   29) = (   0.3701729  -0.3676487  -0.1226612), wk =   0.0625000
        k(   30) = (  -0.3701729  -0.3676487   0.3679837), wk =   0.0625000
        k(   31) = (  -0.3701729   0.3676487  -0.3679837), wk =   0.0625000
        k(   32) = (   0.3701729  -0.3676487  -0.3679837), wk =   0.0625000

     Dense  grid:  2495807 G-vectors     FFT dimensions: ( 180, 180, 180)

     Estimated max dynamical RAM per process >       1.83 GB

     Estimated total dynamical RAM >      58.46 GB

     Initial potential from superposition of free atoms

     starting charge  431.97851, renormalised to  432.00000
     Starting wfcs are  304 randomized atomic wfcs
     Checking if some PAW data can be deallocated... 

     total cpu time spent up to now is      943.3 secs

     Self-consistent Calculation

     iteration #  1     ecut=   120.00 Ry     beta= 0.70
     Davidson diagonalization with overlap
     ethr =  1.00E-02,  avg # of iterations =  2.0

     total cpu time spent up to now is     2790.5 secs

     total energy              =  -16704.99264337 Ry
     Harris-Foulkes estimate   =  -16709.27309649 Ry
     estimated scf accuracy    <       6.78216848 Ry

     iteration #  2     ecut=   120.00 Ry     beta= 0.70
     Davidson diagonalization with overlap
     ethr =  1.57E-03,  avg # of iterations =  4.0

     total cpu time spent up to now is     5280.2 secs

     total energy              =  -16706.53361558 Ry
     Harris-Foulkes estimate   =  -16708.62085751 Ry
     estimated scf accuracy    <       3.88835034 Ry

     iteration #  3     ecut=   120.00 Ry     beta= 0.70
     Davidson diagonalization with overlap
     ethr =  9.00E-04,  avg # of iterations =  3.0

     total cpu time spent up to now is     7237.2 secs

     total energy              =  -16707.39630629 Ry
     Harris-Foulkes estimate   =  -16707.46468153 Ry
     estimated scf accuracy    <       0.14819179 Ry

     iteration #  4     ecut=   120.00 Ry     beta= 0.70
     Davidson diagonalization with overlap
     ethr =  3.43E-05,  avg # of iterations =  4.0

     total cpu time spent up to now is     9904.5 secs

     total energy              =  -16707.44025518 Ry
     Harris-Foulkes estimate   =  -16707.45984315 Ry
     estimated scf accuracy    <       0.03904230 Ry

     iteration #  5     ecut=   120.00 Ry     beta= 0.70
     Davidson diagonalization with overlap
     ethr =  9.04E-06,  avg # of iterations =  3.0

     total cpu time spent up to now is    12040.2 secs

     total energy              =  -16707.44761771 Ry
     Harris-Foulkes estimate   =  -16707.44899716 Ry
     estimated scf accuracy    <       0.00253554 Ry

     iteration #  6     ecut=   120.00 Ry     beta= 0.70
     Davidson diagonalization with overlap
     ethr =  5.87E-07,  avg # of iterations =  3.1

     total cpu time spent up to now is    14512.4 secs

     total energy              =  -16707.44832424 Ry
     Harris-Foulkes estimate   =  -16707.44894603 Ry
     estimated scf accuracy    <       0.00141042 Ry

     iteration #  7     ecut=   120.00 Ry     beta= 0.70
     Davidson diagonalization with overlap
     ethr =  3.26E-07,  avg # of iterations =  3.1

     total cpu time spent up to now is    16485.9 secs

     total energy              =  -16707.44861720 Ry
     Harris-Foulkes estimate   =  -16707.44865078 Ry
     estimated scf accuracy    <       0.00007675 Ry

     iteration #  8     ecut=   120.00 Ry     beta= 0.70
     Davidson diagonalization with overlap
     ethr =  1.78E-08,  avg # of iterations =  3.0

     total cpu time spent up to now is    18984.2 secs

     total energy              =  -16707.44864126 Ry
     Harris-Foulkes estimate   =  -16707.44865138 Ry
     estimated scf accuracy    <       0.00002158 Ry

     iteration #  9     ecut=   120.00 Ry     beta= 0.70
     Davidson diagonalization with overlap
     ethr =  5.00E-09,  avg # of iterations =  3.8

     total cpu time spent up to now is    21179.4 secs

     total energy              =  -16707.44864586 Ry
     Harris-Foulkes estimate   =  -16707.44864730 Ry
     estimated scf accuracy    <       0.00000311 Ry

     iteration # 10     ecut=   120.00 Ry     beta= 0.70
     Davidson diagonalization with overlap
     ethr =  7.19E-10,  avg # of iterations =  4.0

     total cpu time spent up to now is    23418.2 secs

     total energy              =  -16707.44864659 Ry
     Harris-Foulkes estimate   =  -16707.44864676 Ry
     estimated scf accuracy    <       0.00000039 Ry

     iteration # 11     ecut=   120.00 Ry     beta= 0.70
     Davidson diagonalization with overlap
     ethr =  9.12E-11,  avg # of iterations =  4.0

     total cpu time spent up to now is    25725.6 secs

     End of self-consistent calculation

          k = 0.1234 0.1225 0.1227 (311942 PWs)   bands (ev):

   -18.0626 -17.9712 -17.9628 -17.9553 -17.9085 -17.8972 -17.8649 -17.8589
   -15.8402 -15.7450 -15.7438 -15.7405 -15.7380 -15.6491 -15.6439 -15.5986
   -14.3705 -14.3497 -14.3437 -14.3310 -14.3256 -14.3213 -14.3198 -14.3133
   -14.3109 -14.3081 -14.3061 -14.3045 -14.3033 -14.2989 -14.2986 -14.2861
   -14.2839 -14.2813 -14.2798 -14.2785 -14.2776 -14.2762 -14.2720 -14.2706
   -14.2687 -14.2678 -14.2672 -14.2670 -14.2637 -14.2612 -14.2579 -14.2519
   -14.2485 -14.2476 -14.2420 -14.2391 -14.2359 -14.2290 -14.2217 -14.2174
    -9.8797  -9.8374  -9.7927  -9.7372  -9.7289  -9.6918  -9.6830  -9.6398
    -9.5835  -9.5143  -9.4602  -9.4239  -9.4070  -9.3592  -9.3013  -9.2857
    -9.2489  -9.2327  -9.1895  -9.1631  -9.1470  -9.1194  -9.1088  -9.0805
    -9.0668  -9.0520  -9.0380  -9.0082  -8.9811  -8.9581  -8.9092  -8.8741
    -7.9077  -7.7756  -7.7598  -7.7528  -7.7426  -7.7100  -7.6790  -7.6750
    -7.1880  -7.1734  -7.1427  -7.1354  -7.1222  -7.0462  -7.0274  -6.9713
    -5.9118  -5.6194  -5.5038  -5.4804  -5.4434  -5.4287  -5.4208  -5.4107
    -5.3663  -5.3597  -5.3415  -5.3132  -5.0863  -5.0223  -5.0080  -4.6285
    -3.9884  -3.9036  -3.8875  -3.8711  -3.8613  -3.8463  -3.8262  -3.8095
    -3.3944  -3.3766  -3.3522  -3.3436  -3.3185  -3.2952  -3.2714  -3.2450
    -0.9371  -0.8781  -0.8479  -0.8046  -0.7620  -0.7341  -0.7172  -0.6958
    -0.6476  -0.6296  -0.5704  -0.4922  -0.2652  -0.2364  -0.2094  -0.1794
    -0.1509  -0.1131  -0.0658  -0.0275   0.2680   0.3541   0.4043   0.4501
     0.4650   0.4879   0.5064   0.5347   0.5623   0.6196   0.6428   0.7094
     0.7257   0.7777   0.7935   0.8292   0.8470   0.8785   0.9050   0.9489
     0.9653   0.9829   0.9916   0.9991   1.0272   1.0490   1.0600   1.0733
     1.0873   1.1062   1.1286   1.1438   1.1644   1.1790   1.1999   1.2234
     1.2370   1.2582   1.2758   1.2912   1.3098   1.3270   1.3460   1.3603
     1.3866   1.4253   1.4434   1.4568   1.4847   1.5073   1.5332   1.5679
     1.5964   1.6773   1.6988   1.7451   1.7670   1.7929   1.8403   2.0655

          k = 0.1234 0.1225 0.3680 (311915 PWs)   bands (ev):

   -18.0626 -17.9712 -17.9628 -17.9553 -17.9085 -17.8972 -17.8649 -17.8589
   -15.8402 -15.7450 -15.7438 -15.7399 -15.7386 -15.6491 -15.6439 -15.5986
   -14.3699 -14.3497 -14.3443 -14.3310 -14.3256 -14.3204 -14.3191 -14.3146
   -14.3109 -14.3074 -14.3059 -14.3045 -14.3030 -14.3004 -14.2986 -14.2861
   -14.2839 -14.2813 -14.2798 -14.2785 -14.2776 -14.2758 -14.2720 -14.2706
   -14.2687 -14.2678 -14.2670 -14.2667 -14.2637 -14.2619 -14.2579 -14.2519
   -14.2486 -14.2476 -14.2420 -14.2391 -14.2359 -14.2290 -14.2217 -14.2174
    -9.8603  -9.8314  -9.7914  -9.7563  -9.7366  -9.6939  -9.6918  -9.6436
    -9.5771  -9.5047  -9.4719  -9.4342  -9.3972  -9.3464  -9.3377  -9.3123
    -9.2227  -9.2170  -9.1754  -9.1583  -9.1348  -9.1161  -9.0953  -9.0795
    -9.0683  -9.0524  -9.0359  -9.0160  -8.9865  -8.9717  -8.9095  -8.8764
    -7.9077  -7.7733  -7.7587  -7.7535  -7.7432  -7.7127  -7.6795  -7.6754
    -7.1880  -7.1733  -7.1415  -7.1359  -7.1228  -7.0463  -7.0274  -6.9712
    -5.8040  -5.6442  -5.6033  -5.4414  -5.4279  -5.4183  -5.3937  -5.3689
    -5.3603  -5.3430  -5.3154  -5.3008  -5.2095  -5.1374  -4.9167  -4.7539
    -3.9882  -3.8999  -3.8861  -3.8703  -3.8661  -3.8476  -3.8268  -3.8095
    -3.3943  -3.3765  -3.3496  -3.3457  -3.3181  -3.2953  -3.2718  -3.2454
    -0.8523  -0.8338  -0.7759  -0.7499  -0.7301  -0.6712  -0.6232  -0.5985
    -0.5095  -0.4432  -0.3380  -0.2742  -0.2454  -0.2200  -0.1994  -0.1811
    -0.1460  -0.0977  -0.0705  -0.0267   0.0885   0.1983   0.2549   0.3176
     0.3633   0.3722   0.4312   0.4554   0.4893   0.5092   0.5237   0.5751
     0.6187   0.6640   0.7956   0.8421   0.8543   0.8766   0.8836   0.9027
     0.9246   0.9644   0.9740   0.9794   1.0096   1.0186   1.0464   1.0934
     1.1139   1.1392   1.1535   1.1625   1.1878   1.2004   1.2213   1.2411
     1.2575   1.2721   1.2806   1.3052   1.3164   1.3355   1.3511   1.3617
     1.3816   1.4140   1.4319   1.4544   1.4689   1.4830   1.5067   1.5155
     1.5513   1.6342   1.6514   1.6955   1.7110   1.7551   1.8417   1.9263

          k = 0.1234 0.3676 0.1227 (311897 PWs)   bands (ev):

   -18.0626 -17.9712 -17.9628 -17.9553 -17.9085 -17.8972 -17.8649 -17.8589
   -15.8402 -15.7450 -15.7439 -15.7405 -15.7380 -15.6491 -15.6439 -15.5986
   -14.3705 -14.3496 -14.3436 -14.3310 -14.3256 -14.3211 -14.3194 -14.3129
   -14.3109 -14.3077 -14.3056 -14.3044 -14.3033 -14.2999 -14.2986 -14.2867
   -14.2839 -14.2815 -14.2798 -14.2785 -14.2776 -14.2764 -14.2720 -14.2706
   -14.2687 -14.2678 -14.2672 -14.2670 -14.2637 -14.2614 -14.2579 -14.2519
   -14.2485 -14.2476 -14.2420 -14.2391 -14.2359 -14.2290 -14.2217 -14.2174
    -9.8786  -9.8366  -9.7918  -9.7371  -9.7289  -9.6926  -9.6809  -9.6416
    -9.5831  -9.4976  -9.4566  -9.4371  -9.3943  -9.3776  -9.3215  -9.2944
    -9.2666  -9.2470  -9.1866  -9.1602  -9.1314  -9.1103  -9.0974  -9.0797
    -9.0628  -9.0361  -9.0145  -9.0048  -8.9781  -8.9650  -8.9286  -8.8854
    -7.9065  -7.7739  -7.7599  -7.7515  -7.7445  -7.7083  -7.6808  -7.6758
    -7.1877  -7.1732  -7.1428  -7.1356  -7.1221  -7.0455  -7.0280  -6.9715
    -5.7959  -5.6204  -5.5681  -5.4458  -5.4326  -5.4218  -5.3927  -5.3743
    -5.3655  -5.3453  -5.3327  -5.3087  -5.1677  -5.1520  -4.9659  -4.7778
    -3.9857  -3.9034  -3.8914  -3.8677  -3.8613  -3.8466  -3.8269  -3.8107
    -3.3950  -3.3757  -3.3519  -3.3436  -3.3185  -3.2951  -3.2723  -3.2451
    -0.9302  -0.8669  -0.7837  -0.7275  -0.7179  -0.6728  -0.6054  -0.5349
    -0.4075  -0.3654  -0.3183  -0.2457  -0.2377  -0.2144  -0.2039  -0.1676
    -0.1473  -0.1163  -0.0695  -0.0289   0.1763   0.2271   0.2760   0.3007
     0.3784   0.4200   0.4429   0.4554   0.4942   0.5176   0.5663   0.5960
     0.6179   0.6920   0.7206   0.7355   0.7559   0.8468   0.8671   0.8797
     0.9121   0.9266   0.9683   0.9998   1.0203   1.0412   1.0547   1.0693
     1.0905   1.1157   1.1387   1.1570   1.1762   1.1837   1.2046   1.2369
     1.2502   1.2685   1.2872   1.3059   1.3197   1.3309   1.3635   1.3813
     1.4067   1.4320   1.4398   1.4584   1.4711   1.4796   1.5127   1.5283
     1.5583   1.5859   1.5893   1.6487   1.6693   1.6954   1.7883   1.8667

          k = 0.1234 0.3676 0.3680 (311927 PWs)   bands (ev):

   -18.0626 -17.9712 -17.9628 -17.9553 -17.9085 -17.8972 -17.8649 -17.8589
   -15.8402 -15.7449 -15.7439 -15.7399 -15.7386 -15.6491 -15.6439 -15.5986
   -14.3699 -14.3495 -14.3442 -14.3310 -14.3256 -14.3202 -14.3185 -14.3144
   -14.3109 -14.3065 -14.3051 -14.3044 -14.3036 -14.3015 -14.2986 -14.2867
   -14.2839 -14.2815 -14.2798 -14.2785 -14.2776 -14.2760 -14.2720 -14.2706
   -14.2687 -14.2678 -14.2670 -14.2668 -14.2637 -14.2621 -14.2579 -14.2519
   -14.2486 -14.2476 -14.2420 -14.2391 -14.2359 -14.2290 -14.2217 -14.2174
    -9.8617  -9.8275  -9.7907  -9.7555  -9.7365  -9.6952  -9.6896  -9.6443
    -9.5795  -9.4928  -9.4612  -9.4277  -9.4140  -9.3702  -9.3506  -9.3102
    -9.2336  -9.2204  -9.1820  -9.1600  -9.1397  -9.0966  -9.0909  -9.0808
    -9.0613  -9.0404  -9.0126  -9.0078  -8.9817  -8.9727  -8.9253  -8.8911
    -7.9064  -7.7707  -7.7581  -7.7546  -7.7438  -7.7113  -7.6812  -7.6758
    -7.1877  -7.1732  -7.1415  -7.1363  -7.1227  -7.0456  -7.0280  -6.9715
    -5.6949  -5.6206  -5.5181  -5.4686  -5.4334  -5.4281  -5.4162  -5.3803
    -5.3663  -5.3456  -5.3217  -5.2671  -5.2496  -5.0892  -5.0603  -4.8999
    -3.9856  -3.9007  -3.8901  -3.8674  -3.8646  -3.8473  -3.8272  -3.8106
    -3.3950  -3.3757  -3.3495  -3.3459  -3.3179  -3.2951  -3.2727  -3.2455
    -0.8327  -0.7753  -0.6482  -0.6174  -0.5512  -0.4859  -0.3966  -0.3744
    -0.3376  -0.3208  -0.2870  -0.2729  -0.2333  -0.2105  -0.1851  -0.1652
    -0.1481  -0.0987  -0.0726  -0.0166   0.0661   0.1687   0.2027   0.2222
     0.2621   0.2931   0.3255   0.3364   0.3854   0.4570   0.5147   0.5554
     0.6094   0.6419   0.6923   0.7202   0.7487   0.7804   0.7927   0.8047
     0.8472   0.8553   0.8866   0.9226   0.9522   0.9773   1.0117   1.0730
     1.1031   1.1353   1.1419   1.1716   1.1924   1.2030   1.2309   1.2571
     1.2764   1.2827   1.3025   1.3205   1.3380   1.3467   1.3660   1.3715
     1.3923   1.4272   1.4353   1.4540   1.4694   1.4754   1.4894   1.5092
     1.5387   1.5537   1.5819   1.6159   1.6355   1.6678   1.6885   1.7570

          k = 0.3702 0.1225 0.1227 (311928 PWs)   bands (ev):

   -18.0625 -17.9711 -17.9628 -17.9553 -17.9086 -17.8972 -17.8646 -17.8592
   -15.8388 -15.7453 -15.7445 -15.7408 -15.7381 -15.6489 -15.6439 -15.5988
   -14.3704 -14.3495 -14.3436 -14.3310 -14.3256 -14.3210 -14.3191 -14.3136
   -14.3108 -14.3085 -14.3066 -14.3045 -14.3035 -14.2989 -14.2986 -14.2857
   -14.2839 -14.2809 -14.2798 -14.2785 -14.2776 -14.2762 -14.2720 -14.2706
   -14.2687 -14.2678 -14.2677 -14.2670 -14.2637 -14.2612 -14.2579 -14.2519
   -14.2488 -14.2476 -14.2420 -14.2391 -14.2359 -14.2290 -14.2218 -14.2174
    -9.8591  -9.8158  -9.8028  -9.7367  -9.7337  -9.7194  -9.6865  -9.6511
    -9.5879  -9.5182  -9.4581  -9.4145  -9.3851  -9.3674  -9.3167  -9.2995
    -9.2554  -9.2264  -9.1799  -9.1667  -9.1486  -9.1206  -9.1078  -9.0738
    -9.0574  -9.0437  -9.0271  -8.9910  -8.9781  -8.9469  -8.9278  -8.8991
    -7.9054  -7.7766  -7.7593  -7.7547  -7.7480  -7.7105  -7.6796  -7.6760
    -7.1869  -7.1725  -7.1426  -7.1347  -7.1215  -7.0459  -7.0271  -6.9714
    -5.7937  -5.6148  -5.5804  -5.4402  -5.4329  -5.4199  -5.4028  -5.3848
    -5.3631  -5.3392  -5.3215  -5.3060  -5.2157  -5.1437  -4.9236  -4.7619
    -3.9868  -3.9035  -3.8878  -3.8720  -3.8610  -3.8468  -3.8267  -3.8099
    -3.3946  -3.3734  -3.3525  -3.3452  -3.3180  -3.2965  -3.2662  -3.2517
    -0.9273  -0.8408  -0.8110  -0.7842  -0.7210  -0.6969  -0.6637  -0.6037
    -0.4449  -0.3796  -0.3123  -0.2748  -0.2211  -0.2148  -0.1891  -0.1463
    -0.1234  -0.0903  -0.0573  -0.0301   0.1236   0.2240   0.2740   0.3406
     0.3731   0.4039   0.4309   0.4820   0.5054   0.5178   0.5413   0.6204
     0.6365   0.7289   0.7580   0.7724   0.7980   0.8339   0.8492   0.8987
     0.9308   0.9395   0.9612   0.9859   1.0234   1.0355   1.0505   1.0827
     1.1071   1.1333   1.1393   1.1524   1.1698   1.1857   1.2195   1.2409
     1.2460   1.2705   1.2919   1.3132   1.3204   1.3472   1.3663   1.3953
     1.4141   1.4224   1.4350   1.4470   1.4811   1.4916   1.5214   1.5498
     1.5756   1.5823   1.6061   1.6416   1.6690   1.7160   1.7915   1.8698

          k = 0.3702 0.1225 0.3680 (311966 PWs)   bands (ev):

   -18.0625 -17.9711 -17.9628 -17.9553 -17.9086 -17.8972 -17.8646 -17.8592
   -15.8388 -15.7453 -15.7445 -15.7403 -15.7386 -15.6489 -15.6439 -15.5988
   -14.3698 -14.3494 -14.3442 -14.3310 -14.3256 -14.3195 -14.3190 -14.3148
   -14.3108 -14.3082 -14.3061 -14.3045 -14.3033 -14.3004 -14.2986 -14.2857
   -14.2839 -14.2810 -14.2798 -14.2785 -14.2776 -14.2758 -14.2720 -14.2706
   -14.2687 -14.2678 -14.2673 -14.2670 -14.2637 -14.2619 -14.2579 -14.2519
   -14.2490 -14.2476 -14.2420 -14.2391 -14.2359 -14.2290 -14.2218 -14.2174
    -9.8439  -9.8141  -9.7899  -9.7569  -9.7381  -9.7187  -9.6974  -9.6539
    -9.5772  -9.5069  -9.4818  -9.4325  -9.3915  -9.3541  -9.3415  -9.3160
    -9.2187  -9.2085  -9.1778  -9.1600  -9.1298  -9.1138  -9.1020  -9.0855
    -9.0556  -9.0430  -9.0265  -8.9991  -8.9864  -8.9497  -8.9303  -8.9006
    -7.9058  -7.7745  -7.7584  -7.7537  -7.7500  -7.7135  -7.6793  -7.6763
    -7.1869  -7.1724  -7.1413  -7.1354  -7.1221  -7.0459  -7.0271  -6.9713
    -5.6890  -5.5839  -5.5212  -5.5062  -5.4376  -5.4304  -5.4186  -5.4022
    -5.3627  -5.3425  -5.3361  -5.3199  -5.2080  -5.0528  -5.0401  -4.8862
    -3.9865  -3.8998  -3.8861  -3.8712  -3.8657  -3.8482  -3.8271  -3.8097
    -3.3945  -3.3733  -3.3507  -3.3464  -3.3180  -3.2965  -3.2662  -3.2517
    -0.8105  -0.7791  -0.7445  -0.6975  -0.5681  -0.5180  -0.4266  -0.4131
    -0.3683  -0.3278  -0.2875  -0.2259  -0.2132  -0.2065  -0.1863  -0.1432
    -0.1197  -0.1074  -0.0705  -0.0384   0.0802   0.1728   0.1935   0.2386
     0.2677   0.2764   0.3309   0.3744   0.4031   0.4392   0.4963   0.5067
     0.6587   0.6855   0.7238   0.7441   0.7708   0.7806   0.7933   0.8158
     0.8627   0.8771   0.9073   0.9300   0.9497   0.9907   1.0142   1.0567
     1.1018   1.1474   1.1697   1.1786   1.2048   1.2196   1.2292   1.2393
     1.2628   1.2909   1.3006   1.3166   1.3326   1.3526   1.3677   1.3846
     1.4041   1.4145   1.4351   1.4484   1.4526   1.4710   1.4908   1.5194
     1.5338   1.5507   1.6021   1.6264   1.6526   1.6991   1.7258   1.7567

          k = 0.3702 0.3676 0.1227 (311959 PWs)   bands (ev):

   -18.0625 -17.9711 -17.9628 -17.9553 -17.9086 -17.8972 -17.8646 -17.8592
   -15.8388 -15.7453 -15.7445 -15.7408 -15.7381 -15.6488 -15.6439 -15.5988
   -14.3704 -14.3493 -14.3435 -14.3310 -14.3256 -14.3207 -14.3189 -14.3131
   -14.3108 -14.3078 -14.3064 -14.3045 -14.3034 -14.2999 -14.2986 -14.2863
   -14.2839 -14.2811 -14.2798 -14.2785 -14.2776 -14.2764 -14.2720 -14.2706
   -14.2687 -14.2678 -14.2677 -14.2670 -14.2637 -14.2614 -14.2579 -14.2519
   -14.2489 -14.2476 -14.2420 -14.2391 -14.2359 -14.2290 -14.2218 -14.2174
    -9.8592  -9.8121  -9.8041  -9.7376  -9.7312  -9.7191  -9.6856  -9.6501
    -9.5888  -9.5066  -9.4565  -9.4359  -9.3850  -9.3636  -9.3171  -9.3099
    -9.2610  -9.2478  -9.2005  -9.1672  -9.1333  -9.1125  -9.0876  -9.0735
    -9.0388  -9.0244  -9.0097  -8.9959  -8.9891  -8.9569  -8.9367  -8.9067
    -7.9044  -7.7745  -7.7588  -7.7537  -7.7502  -7.7088  -7.6806  -7.6772
    -7.1869  -7.1724  -7.1426  -7.1344  -7.1217  -7.0450  -7.0281  -6.9714
    -5.6811  -5.5818  -5.5117  -5.4639  -5.4360  -5.4276  -5.4125  -5.4001
    -5.3582  -5.3410  -5.3249  -5.2801  -5.2679  -5.1110  -5.0595  -4.9078
    -3.9847  -3.9035  -3.8894  -3.8694  -3.8618  -3.8466  -3.8274  -3.8107
    -3.3953  -3.3726  -3.3525  -3.3451  -3.3180  -3.2967  -3.2667  -3.2517
    -0.9200  -0.8029  -0.7263  -0.6185  -0.5317  -0.4472  -0.3939  -0.3734
    -0.3472  -0.2879  -0.2643  -0.2316  -0.2120  -0.2000  -0.1709  -0.1461
    -0.1175  -0.0866  -0.0636  -0.0298   0.0565   0.1985   0.2095   0.2248
     0.3050   0.3315   0.3665   0.3987   0.4182   0.4359   0.4804   0.5076
     0.5454   0.6005   0.6577   0.7146   0.7520   0.8003   0.8462   0.8751
     0.8891   0.9162   0.9431   0.9636   0.9923   1.0197   1.0349   1.0685
     1.0766   1.0976   1.1169   1.1239   1.1528   1.1757   1.1995   1.2193
     1.2300   1.2440   1.2690   1.2899   1.3173   1.3366   1.3512   1.3809
     1.4022   1.4248   1.4516   1.4660   1.4811   1.5010   1.5141   1.5184
     1.5413   1.5520   1.5619   1.5911   1.6088   1.6405   1.6439   1.6880

          k = 0.3702 0.3676 0.3680 (312036 PWs)   bands (ev):

   -18.0625 -17.9711 -17.9628 -17.9553 -17.9086 -17.8972 -17.8646 -17.8592
   -15.8388 -15.7453 -15.7445 -15.7403 -15.7386 -15.6488 -15.6439 -15.5988
   -14.3698 -14.3493 -14.3441 -14.3310 -14.3256 -14.3192 -14.3186 -14.3146
   -14.3108 -14.3072 -14.3053 -14.3045 -14.3038 -14.3015 -14.2986 -14.2863
   -14.2839 -14.2812 -14.2798 -14.2785 -14.2776 -14.2760 -14.2720 -14.2706
   -14.2687 -14.2678 -14.2673 -14.2670 -14.2637 -14.2621 -14.2579 -14.2519
   -14.2490 -14.2476 -14.2420 -14.2391 -14.2359 -14.2290 -14.2218 -14.2174
    -9.8454  -9.8086  -9.7920  -9.7579  -9.7358  -9.7185  -9.6967  -9.6511
    -9.5812  -9.4939  -9.4738  -9.4242  -9.4159  -9.3735  -9.3524  -9.3106
    -9.2388  -9.2043  -9.1851  -9.1676  -9.1303  -9.1015  -9.0900  -9.0749
    -9.0409  -9.0283  -9.0085  -9.0017  -8.9931  -8.9575  -8.9395  -8.9096
    -7.9048  -7.7714  -7.7577  -7.7548  -7.7512  -7.7121  -7.6803  -7.6771
    -7.1869  -7.1724  -7.1413  -7.1352  -7.1223  -7.0451  -7.0281  -6.9714
    -5.5953  -5.5686  -5.4399  -5.4355  -5.4290  -5.4082  -5.4027  -5.3935
    -5.3660  -5.3430  -5.3328  -5.3178  -5.2340  -5.1886  -5.1741  -5.0283
    -3.9845  -3.9008  -3.8881  -3.8694  -3.8647  -3.8474  -3.8276  -3.8105
    -3.3953  -3.3725  -3.3509  -3.3463  -3.3179  -3.2967  -3.2666  -3.2518
    -0.6020  -0.5410  -0.5037  -0.4453  -0.4126  -0.3740  -0.3648  -0.3565
    -0.3248  -0.2997  -0.2620  -0.2289  -0.2016  -0.1909  -0.1688  -0.1447
    -0.1115  -0.0966  -0.0659  -0.0425   0.0450   0.1293   0.1636   0.1876
     0.2143   0.2459   0.2562   0.2827   0.3199   0.3439   0.3904   0.4419
     0.6107   0.6528   0.6801   0.7057   0.7389   0.7623   0.7873   0.8056
     0.8184   0.8604   0.8826   0.8982   0.9119   0.9413   0.9671   0.9940
     1.0372   1.0529   1.0628   1.0907   1.1117   1.1332   1.1670   1.1878
     1.2565   1.2723   1.2951   1.3103   1.3209   1.3445   1.3596   1.3892
     1.4031   1.4228   1.4298   1.4552   1.4624   1.4852   1.4966   1.5091
     1.5232   1.5368   1.5463   1.5668   1.5804   1.6281   1.6370   1.6671

          k =-0.1234-0.1225 0.1227 (311942 PWs)   bands (ev):

   -18.0626 -17.9712 -17.9628 -17.9553 -17.9085 -17.8972 -17.8649 -17.8589
   -15.8402 -15.7450 -15.7438 -15.7405 -15.7380 -15.6491 -15.6439 -15.5986
   -14.3705 -14.3497 -14.3437 -14.3310 -14.3256 -14.3213 -14.3198 -14.3133
   -14.3109 -14.3081 -14.3061 -14.3045 -14.3033 -14.2989 -14.2986 -14.2861
   -14.2839 -14.2813 -14.2798 -14.2785 -14.2776 -14.2762 -14.2720 -14.2706
   -14.2687 -14.2678 -14.2672 -14.2670 -14.2637 -14.2612 -14.2579 -14.2519
   -14.2485 -14.2476 -14.2420 -14.2391 -14.2359 -14.2290 -14.2217 -14.2174
    -9.8792  -9.8363  -9.7916  -9.7384  -9.7308  -9.6927  -9.6830  -9.6422
    -9.5840  -9.5139  -9.4532  -9.4271  -9.4041  -9.3563  -9.3070  -9.2905
    -9.2461  -9.2242  -9.1885  -9.1779  -9.1382  -9.1187  -9.1118  -9.0829
    -9.0666  -9.0498  -9.0378  -9.0094  -8.9807  -8.9574  -8.9088  -8.8741
    -7.9075  -7.7754  -7.7598  -7.7533  -7.7422  -7.7102  -7.6793  -7.6752
    -7.1880  -7.1734  -7.1427  -7.1353  -7.1222  -7.0462  -7.0274  -6.9713
    -5.9115  -5.6186  -5.5051  -5.4818  -5.4392  -5.4319  -5.4220  -5.4147
    -5.3648  -5.3559  -5.3402  -5.3130  -5.0860  -5.0233  -5.0079  -4.6288
    -3.9884  -3.9037  -3.8874  -3.8711  -3.8613  -3.8463  -3.8262  -3.8096
    -3.3946  -3.3766  -3.3522  -3.3436  -3.3187  -3.2952  -3.2713  -3.2449
    -0.9427  -0.8721  -0.8454  -0.8146  -0.7648  -0.7274  -0.7144  -0.6970
    -0.6437  -0.6254  -0.5773  -0.4889  -0.2633  -0.2344  -0.2118  -0.1768
    -0.1526  -0.1150  -0.0650  -0.0276   0.2683   0.3605   0.4050   0.4434
     0.4642   0.4870   0.4958   0.5378   0.5644   0.6211   0.6420   0.7087
     0.7169   0.7644   0.7899   0.8252   0.8422   0.8776   0.9131   0.9417
     0.9663   0.9851   1.0003   1.0154   1.0320   1.0549   1.0604   1.0842
     1.0997   1.1050   1.1300   1.1413   1.1566   1.1761   1.1945   1.2103
     1.2379   1.2500   1.2786   1.2973   1.3098   1.3330   1.3445   1.3633
     1.3876   1.4193   1.4407   1.4672   1.4793   1.5111   1.5377   1.5656
     1.5940   1.6771   1.7014   1.7472   1.7611   1.7909   1.8415   2.0641

          k =-0.1234 0.1225-0.1227 (311942 PWs)   bands (ev):

   -18.0626 -17.9712 -17.9628 -17.9553 -17.9085 -17.8972 -17.8649 -17.8589
   -15.8402 -15.7450 -15.7438 -15.7405 -15.7380 -15.6491 -15.6439 -15.5986
   -14.3705 -14.3497 -14.3437 -14.3310 -14.3256 -14.3213 -14.3198 -14.3133
   -14.3109 -14.3081 -14.3061 -14.3045 -14.3033 -14.2989 -14.2986 -14.2861
   -14.2839 -14.2813 -14.2798 -14.2785 -14.2776 -14.2762 -14.2720 -14.2706
   -14.2687 -14.2678 -14.2672 -14.2670 -14.2637 -14.2612 -14.2579 -14.2519
   -14.2485 -14.2476 -14.2420 -14.2391 -14.2359 -14.2290 -14.2217 -14.2174
    -9.8799  -9.8371  -9.7928  -9.7372  -9.7296  -9.6911  -9.6825  -9.6404
    -9.5832  -9.5141  -9.4591  -9.4272  -9.4077  -9.3571  -9.3051  -9.2852
    -9.2416  -9.2277  -9.1896  -9.1775  -9.1426  -9.1201  -9.1082  -9.0766
    -9.0685  -9.0565  -9.0339  -9.0112  -8.9780  -8.9586  -8.9084  -8.8747
    -7.9077  -7.7755  -7.7598  -7.7533  -7.7421  -7.7102  -7.6792  -7.6750
    -7.1880  -7.1734  -7.1427  -7.1354  -7.1222  -7.0462  -7.0272  -6.9714
    -5.9119  -5.6186  -5.5056  -5.4824  -5.4408  -5.4294  -5.4232  -5.4098
    -5.3662  -5.3582  -5.3404  -5.3124  -5.0865  -5.0224  -5.0082  -4.6291
    -3.9881  -3.9041  -3.8876  -3.8712  -3.8613  -3.8460  -3.8261  -3.8097
    -3.3944  -3.3765  -3.3523  -3.3435  -3.3185  -3.2954  -3.2712  -3.2450
    -0.9316  -0.8765  -0.8366  -0.8054  -0.7663  -0.7401  -0.7188  -0.6979
    -0.6513  -0.6294  -0.5745  -0.4937  -0.2628  -0.2372  -0.2135  -0.1780
    -0.1509  -0.1126  -0.0628  -0.0293   0.2677   0.3585   0.4038   0.4529
     0.4700   0.4869   0.5013   0.5453   0.5657   0.6169   0.6496   0.6896
     0.7065   0.7761   0.8094   0.8262   0.8623   0.8796   0.8967   0.9360
     0.9620   0.9781   0.9946   1.0238   1.0283   1.0411   1.0615   1.0739
     1.0869   1.1039   1.1264   1.1481   1.1726   1.1835   1.2054   1.2137
     1.2363   1.2618   1.2774   1.2824   1.3048   1.3256   1.3528   1.3665
     1.3758   1.4207   1.4409   1.4607   1.4911   1.5064   1.5369   1.5669
     1.5992   1.6753   1.7102   1.7491   1.7728   1.7972   1.8148   2.0531

          k = 0.1234-0.1225-0.1227 (311942 PWs)   bands (ev):

   -18.0626 -17.9712 -17.9628 -17.9553 -17.9085 -17.8972 -17.8649 -17.8589
   -15.8402 -15.7450 -15.7438 -15.7405 -15.7380 -15.6491 -15.6439 -15.5986
   -14.3705 -14.3497 -14.3437 -14.3310 -14.3256 -14.3213 -14.3198 -14.3133
   -14.3109 -14.3081 -14.3061 -14.3045 -14.3033 -14.2989 -14.2986 -14.2861
   -14.2839 -14.2813 -14.2798 -14.2785 -14.2776 -14.2762 -14.2720 -14.2706
   -14.2687 -14.2678 -14.2672 -14.2670 -14.2637 -14.2612 -14.2579 -14.2519
   -14.2485 -14.2476 -14.2420 -14.2391 -14.2359 -14.2290 -14.2217 -14.2174
    -9.8793  -9.8361  -9.7916  -9.7381  -9.7308  -9.6929  -9.6829  -9.6434
    -9.5834  -9.5120  -9.4537  -9.4254  -9.4088  -9.3561  -9.3032  -9.2896
    -9.2434  -9.2286  -9.1911  -9.1746  -9.1477  -9.1206  -9.1034  -9.0814
    -9.0668  -9.0519  -9.0340  -9.0119  -8.9792  -8.9583  -8.9083  -8.8746
    -7.9075  -7.7755  -7.7600  -7.7528  -7.7423  -7.7102  -7.6795  -7.6751
    -7.1880  -7.1734  -7.1427  -7.1353  -7.1222  -7.0462  -7.0272  -6.9714
    -5.9117  -5.6196  -5.5045  -5.4808  -5.4399  -5.4306  -5.4207  -5.4110
    -5.3658  -5.3594  -5.3411  -5.3144  -5.0860  -5.0228  -5.0077  -4.6288
    -3.9881  -3.9042  -3.8876  -3.8710  -3.8612  -3.8462  -3.8260  -3.8097
    -3.3945  -3.3766  -3.3522  -3.3437  -3.3188  -3.2953  -3.2710  -3.2449
    -0.9468  -0.8697  -0.8296  -0.8128  -0.7657  -0.7327  -0.7193  -0.6978
    -0.6495  -0.6261  -0.5779  -0.4881  -0.2641  -0.2371  -0.2134  -0.1800
    -0.1478  -0.1131  -0.0646  -0.0282   0.2690   0.3590   0.4025   0.4460
     0.4722   0.4863   0.5013   0.5345   0.5611   0.6299   0.6462   0.6984
     0.7079   0.7845   0.8004   0.8241   0.8496   0.8755   0.8907   0.9280
     0.9648   0.9795   1.0039   1.0229   1.0356   1.0423   1.0659   1.0783
     1.0932   1.1045   1.1268   1.1443   1.1609   1.1915   1.2044   1.2242
     1.2356   1.2489   1.2698   1.2935   1.3065   1.3337   1.3444   1.3649
     1.3857   1.4213   1.4355   1.4575   1.4857   1.5117   1.5375   1.5615
     1.5967   1.6765   1.7116   1.7474   1.7749   1.7927   1.8181   2.0583

          k =-0.1234-0.1225 0.3680 (311915 PWs)   bands (ev):

   -18.0626 -17.9712 -17.9628 -17.9553 -17.9085 -17.8972 -17.8649 -17.8589
   -15.8402 -15.7450 -15.7438 -15.7399 -15.7386 -15.6491 -15.6439 -15.5986
   -14.3699 -14.3497 -14.3443 -14.3310 -14.3256 -14.3204 -14.3191 -14.3146
   -14.3109 -14.3074 -14.3059 -14.3045 -14.3030 -14.3004 -14.2986 -14.2861
   -14.2839 -14.2813 -14.2798 -14.2785 -14.2776 -14.2758 -14.2720 -14.2706
   -14.2687 -14.2678 -14.2670 -14.2667 -14.2637 -14.2619 -14.2579 -14.2519
   -14.2486 -14.2476 -14.2420 -14.2391 -14.2359 -14.2290 -14.2217 -14.2174
    -9.8596  -9.8299  -9.7894  -9.7590  -9.7385  -9.6946  -9.6918  -9.6456
    -9.5787  -9.5011  -9.4707  -9.4313  -9.3952  -9.3473  -9.3426  -9.3102
    -9.2275  -9.2069  -9.1860  -9.1550  -9.1344  -9.1141  -9.0957  -9.0816
    -9.0691  -9.0509  -9.0381  -9.0162  -8.9856  -8.9708  -8.9092  -8.8763
    -7.9074  -7.7731  -7.7585  -7.7542  -7.7427  -7.7128  -7.6798  -7.6755
    -7.1880  -7.1733  -7.1415  -7.1358  -7.1228  -7.0463  -7.0274  -6.9712
    -5.8032  -5.6431  -5.6056  -5.4406  -5.4284  -5.4200  -5.3905  -5.3778
    -5.3590  -5.3421  -5.3203  -5.2876  -5.2085  -5.1414  -4.9162  -4.7546
    -3.9881  -3.9000  -3.8859  -3.8704  -3.8660  -3.8475  -3.8268  -3.8095
    -3.3944  -3.3765  -3.3497  -3.3456  -3.3183  -3.2953  -3.2716  -3.2453
    -0.8488  -0.8331  -0.7898  -0.7483  -0.7255  -0.6757  -0.6228  -0.5960
    -0.5109  -0.4348  -0.3291  -0.2748  -0.2428  -0.2158  -0.2039  -0.1751
    -0.1468  -0.1029  -0.0711  -0.0207   0.0749   0.1957   0.2408   0.3236
     0.3527   0.3990   0.4225   0.4446   0.4827   0.5145   0.5261   0.5866
     0.6090   0.6571   0.7937   0.8303   0.8535   0.8806   0.8910   0.9195
     0.9304   0.9544   0.9579   0.9821   1.0090   1.0326   1.0607   1.0860
     1.1239   1.1394   1.1547   1.1717   1.1798   1.1969   1.2151   1.2309
     1.2540   1.2627   1.2894   1.3075   1.3192   1.3395   1.3545   1.3676
     1.3858   1.4087   1.4268   1.4402   1.4758   1.4992   1.5048   1.5204
     1.5405   1.6367   1.6442   1.7001   1.7111   1.7523   1.8435   1.9239

          k =-0.1234 0.1225-0.3680 (311915 PWs)   bands (ev):

   -18.0626 -17.9712 -17.9628 -17.9553 -17.9085 -17.8972 -17.8649 -17.8589
   -15.8402 -15.7450 -15.7438 -15.7399 -15.7386 -15.6491 -15.6439 -15.5986
   -14.3699 -14.3497 -14.3443 -14.3310 -14.3256 -14.3204 -14.3191 -14.3146
   -14.3109 -14.3074 -14.3059 -14.3045 -14.3030 -14.3004 -14.2986 -14.2861
   -14.2839 -14.2813 -14.2798 -14.2785 -14.2776 -14.2758 -14.2720 -14.2706
   -14.2687 -14.2678 -14.2670 -14.2667 -14.2637 -14.2619 -14.2579 -14.2519
   -14.2486 -14.2476 -14.2420 -14.2391 -14.2359 -14.2290 -14.2217 -14.2174
    -9.8605  -9.8309  -9.7914  -9.7569  -9.7371  -9.6933  -9.6910  -9.6447
    -9.5762  -9.5034  -9.4747  -9.4336  -9.3948  -9.3505  -9.3395  -9.3081
    -9.2272  -9.2084  -9.1806  -9.1546  -9.1401  -9.1110  -9.0968  -9.0757
    -9.0691  -9.0614  -9.0341  -9.0158  -8.9837  -8.9719  -8.9088  -8.8769
    -7.9076  -7.7733  -7.7584  -7.7543  -7.7426  -7.7128  -7.6797  -7.6753
    -7.1880  -7.1733  -7.1415  -7.1359  -7.1228  -7.0463  -7.0272  -6.9713
    -5.8040  -5.6407  -5.6079  -5.4420  -5.4278  -5.4197  -5.3926  -5.3704
    -5.3610  -5.3413  -5.3181  -5.2932  -5.2095  -5.1398  -4.9162  -4.7548
    -3.9878  -3.9005  -3.8861  -3.8705  -3.8659  -3.8473  -3.8266  -3.8097
    -3.3942  -3.3765  -3.3498  -3.3455  -3.3181  -3.2955  -3.2716  -3.2454
    -0.8421  -0.8182  -0.7787  -0.7685  -0.7254  -0.6763  -0.6261  -0.5977
    -0.5184  -0.4413  -0.3368  -0.2837  -0.2382  -0.2197  -0.2039  -0.1761
    -0.1437  -0.0961  -0.0707  -0.0309   0.0887   0.2027   0.2511   0.3138
     0.3609   0.3892   0.4279   0.4542   0.4844   0.5110   0.5281   0.5871
     0.6155   0.6462   0.8014   0.8263   0.8592   0.8723   0.8862   0.9254
     0.9352   0.9531   0.9639   0.9877   1.0067   1.0218   1.0569   1.0775
     1.1165   1.1326   1.1461   1.1853   1.1930   1.2049   1.2103   1.2373
     1.2537   1.2645   1.2895   1.2961   1.3155   1.3292   1.3545   1.3675
     1.3826   1.4111   1.4261   1.4511   1.4716   1.4945   1.5065   1.5209
     1.5513   1.6325   1.6572   1.6985   1.7194   1.7662   1.8226   1.9068

          k = 0.1234-0.1225-0.3680 (311915 PWs)   bands (ev):

   -18.0626 -17.9712 -17.9628 -17.9553 -17.9085 -17.8972 -17.8649 -17.8589
   -15.8402 -15.7450 -15.7438 -15.7399 -15.7386 -15.6491 -15.6439 -15.5986
   -14.3699 -14.3497 -14.3443 -14.3310 -14.3256 -14.3204 -14.3191 -14.3146
   -14.3109 -14.3074 -14.3059 -14.3045 -14.3030 -14.3004 -14.2986 -14.2861
   -14.2839 -14.2813 -14.2798 -14.2785 -14.2776 -14.2758 -14.2720 -14.2706
   -14.2687 -14.2678 -14.2670 -14.2667 -14.2637 -14.2619 -14.2579 -14.2519
   -14.2486 -14.2476 -14.2420 -14.2391 -14.2359 -14.2290 -14.2217 -14.2174
    -9.8596  -9.8299  -9.7892  -9.7590  -9.7388  -9.6954  -9.6906  -9.6472
    -9.5779  -9.4980  -9.4707  -9.4327  -9.3989  -9.3458  -9.3374  -9.3134
    -9.2283  -9.2141  -9.1664  -9.1627  -9.1416  -9.1180  -9.0952  -9.0747
    -9.0706  -9.0506  -9.0352  -9.0188  -8.9852  -8.9710  -8.9088  -8.8768
    -7.9074  -7.7733  -7.7587  -7.7535  -7.7429  -7.7128  -7.6800  -7.6754
    -7.1880  -7.1733  -7.1415  -7.1359  -7.1228  -7.0463  -7.0272  -6.9713
    -5.8034  -5.6460  -5.6025  -5.4404  -5.4290  -5.4185  -5.3885  -5.3744
    -5.3600  -5.3428  -5.3194  -5.2961  -5.2086  -5.1384  -4.9167  -4.7542
    -3.9879  -3.9006  -3.8861  -3.8699  -3.8662  -3.8476  -3.8265  -3.8097
    -3.3944  -3.3766  -3.3496  -3.3458  -3.3184  -3.2955  -3.2714  -3.2453
    -0.8416  -0.8268  -0.7819  -0.7681  -0.7281  -0.6730  -0.6245  -0.6027
    -0.5011  -0.4406  -0.3245  -0.2782  -0.2453  -0.2184  -0.2039  -0.1822
    -0.1419  -0.1000  -0.0687  -0.0220   0.0760   0.1903   0.2463   0.3254
     0.3638   0.3856   0.4343   0.4419   0.4893   0.5086   0.5242   0.5817
     0.6187   0.6533   0.7961   0.8346   0.8522   0.8753   0.8892   0.9167
     0.9240   0.9440   0.9725   0.9955   1.0038   1.0339   1.0532   1.0825
     1.1112   1.1335   1.1537   1.1835   1.1899   1.2032   1.2252   1.2350
     1.2527   1.2657   1.2830   1.3015   1.3132   1.3397   1.3495   1.3732
     1.3777   1.4154   1.4205   1.4460   1.4759   1.4943   1.4994   1.5225
     1.5433   1.6381   1.6547   1.6956   1.7200   1.7659   1.8264   1.9087

          k =-0.1234-0.3676 0.1227 (311897 PWs)   bands (ev):

   -18.0626 -17.9712 -17.9628 -17.9553 -17.9085 -17.8972 -17.8649 -17.8589
   -15.8402 -15.7450 -15.7439 -15.7405 -15.7380 -15.6491 -15.6439 -15.5986
   -14.3705 -14.3496 -14.3436 -14.3310 -14.3256 -14.3211 -14.3194 -14.3129
   -14.3109 -14.3077 -14.3056 -14.3044 -14.3033 -14.2999 -14.2986 -14.2867
   -14.2839 -14.2815 -14.2798 -14.2785 -14.2776 -14.2764 -14.2720 -14.2706
   -14.2687 -14.2678 -14.2672 -14.2670 -14.2637 -14.2614 -14.2579 -14.2519
   -14.2485 -14.2476 -14.2420 -14.2391 -14.2359 -14.2290 -14.2217 -14.2174
    -9.8783  -9.8353  -9.7906  -9.7395  -9.7293  -9.6935  -9.6810  -9.6427
    -9.5846  -9.4984  -9.4491  -9.4417  -9.3963  -9.3697  -9.3238  -9.2935
    -9.2712  -9.2360  -9.1889  -9.1753  -9.1267  -9.1110  -9.0943  -9.0772
    -9.0654  -9.0369  -9.0157  -9.0048  -8.9773  -8.9638  -8.9278  -8.8856
    -7.9063  -7.7737  -7.7598  -7.7520  -7.7440  -7.7085  -7.6811  -7.6759
    -7.1877  -7.1732  -7.1428  -7.1356  -7.1221  -7.0455  -7.0280  -6.9715
    -5.7955  -5.6182  -5.5712  -5.4467  -5.4333  -5.4223  -5.3992  -5.3725
    -5.3617  -5.3452  -5.3289  -5.3060  -5.1718  -5.1510  -4.9652  -4.7784
    -3.9857  -3.9035  -3.8913  -3.8678  -3.8610  -3.8466  -3.8270  -3.8108
    -3.3952  -3.3758  -3.3519  -3.3436  -3.3188  -3.2950  -3.2721  -3.2450
    -0.9390  -0.8584  -0.7898  -0.7344  -0.7077  -0.6643  -0.6071  -0.5279
    -0.4149  -0.3687  -0.3159  -0.2490  -0.2360  -0.2168  -0.1959  -0.1643
    -0.1498  -0.1208  -0.0673  -0.0323   0.1777   0.2279   0.2794   0.3096
     0.3700   0.4044   0.4463   0.4643   0.4829   0.5168   0.5679   0.5932
     0.6203   0.6872   0.7120   0.7385   0.7704   0.8355   0.8572   0.8793
     0.9003   0.9402   0.9884   1.0124   1.0236   1.0371   1.0484   1.0662
     1.0846   1.1200   1.1372   1.1642   1.1708   1.1977   1.2145   1.2211
     1.2519   1.2655   1.2781   1.3003   1.3233   1.3443   1.3569   1.3859
     1.4082   1.4264   1.4420   1.4561   1.4702   1.4790   1.5103   1.5289
     1.5554   1.5798   1.6014   1.6512   1.6677   1.6972   1.7860   1.8665

          k =-0.1234 0.3676-0.1227 (311897 PWs)   bands (ev):

   -18.0626 -17.9712 -17.9628 -17.9553 -17.9085 -17.8972 -17.8649 -17.8589
   -15.8402 -15.7450 -15.7439 -15.7405 -15.7380 -15.6491 -15.6439 -15.5986
   -14.3705 -14.3496 -14.3436 -14.3310 -14.3256 -14.3211 -14.3194 -14.3129
   -14.3109 -14.3077 -14.3056 -14.3044 -14.3033 -14.2999 -14.2986 -14.2867
   -14.2839 -14.2815 -14.2798 -14.2785 -14.2776 -14.2764 -14.2720 -14.2706
   -14.2687 -14.2678 -14.2672 -14.2670 -14.2637 -14.2614 -14.2579 -14.2519
   -14.2485 -14.2476 -14.2420 -14.2391 -14.2359 -14.2290 -14.2217 -14.2174
    -9.8789  -9.8362  -9.7919  -9.7371  -9.7295  -9.6919  -9.6804  -9.6422
    -9.5827  -9.4980  -9.4540  -9.4390  -9.4011  -9.3723  -9.3252  -9.2924
    -9.2630  -9.2412  -9.1857  -9.1742  -9.1282  -9.1131  -9.0926  -9.0774
    -9.0592  -9.0424  -9.0175  -9.0045  -8.9730  -8.9668  -8.9274  -8.8861
    -7.9065  -7.7738  -7.7599  -7.7523  -7.7437  -7.7084  -7.6810  -7.6757
    -7.1877  -7.1732  -7.1428  -7.1356  -7.1222  -7.0455  -7.0279  -6.9716
    -5.7961  -5.6179  -5.5712  -5.4458  -5.4334  -5.4225  -5.4003  -5.3705
    -5.3622  -5.3475  -5.3267  -5.3071  -5.1706  -5.1516  -4.9650  -4.7789
    -3.9854  -3.9039  -3.8915  -3.8679  -3.8611  -3.8462  -3.8269  -3.8109
    -3.3950  -3.3757  -3.3520  -3.3435  -3.3185  -3.2953  -3.2721  -3.2451
    -0.9287  -0.8654  -0.7814  -0.7264  -0.7165  -0.6704  -0.6015  -0.5349
    -0.4158  -0.3749  -0.3254  -0.2493  -0.2371  -0.2160  -0.2064  -0.1690
    -0.1473  -0.1169  -0.0657  -0.0307   0.1825   0.2395   0.2802   0.3155
     0.3787   0.4127   0.4506   0.4550   0.4829   0.5150   0.5546   0.5950
     0.6302   0.6869   0.7071   0.7345   0.7896   0.8169   0.8742   0.8877
     0.9047   0.9221   0.9822   0.9970   1.0246   1.0352   1.0477   1.0696
     1.0936   1.1123   1.1395   1.1617   1.1797   1.1996   1.2088   1.2231
     1.2400   1.2641   1.2927   1.3032   1.3145   1.3389   1.3722   1.3846
     1.4037   1.4258   1.4410   1.4577   1.4704   1.4818   1.5062   1.5307
     1.5630   1.5734   1.6107   1.6457   1.6686   1.6908   1.7926   1.8515

          k = 0.1234-0.3676-0.1227 (311897 PWs)   bands (ev):

   -18.0626 -17.9712 -17.9628 -17.9553 -17.9085 -17.8972 -17.8649 -17.8589
   -15.8402 -15.7450 -15.7439 -15.7405 -15.7380 -15.6491 -15.6439 -15.5986
   -14.3705 -14.3496 -14.3436 -14.3310 -14.3256 -14.3211 -14.3194 -14.3129
   -14.3109 -14.3077 -14.3056 -14.3044 -14.3033 -14.2999 -14.2986 -14.2867
   -14.2839 -14.2815 -14.2798 -14.2785 -14.2776 -14.2764 -14.2720 -14.2706
   -14.2687 -14.2678 -14.2672 -14.2670 -14.2637 -14.2614 -14.2579 -14.2519
   -14.2485 -14.2476 -14.2420 -14.2391 -14.2359 -14.2290 -14.2217 -14.2174
    -9.8784  -9.8351  -9.7906  -9.7392  -9.7292  -9.6937  -9.6809  -9.6439
    -9.5839  -9.4960  -9.4503  -9.4414  -9.3974  -9.3743  -9.3159  -9.2929
    -9.2686  -9.2419  -9.1935  -9.1714  -9.1297  -9.1116  -9.0945  -9.0769
    -9.0559  -9.0409  -9.0199  -9.0035  -8.9733  -8.9661  -8.9273  -8.8862
    -7.9063  -7.7738  -7.7601  -7.7515  -7.7442  -7.7085  -7.6814  -7.6757
    -7.1877  -7.1732  -7.1428  -7.1356  -7.1222  -7.0455  -7.0279  -6.9716
    -5.7959  -5.6218  -5.5661  -5.4470  -5.4326  -5.4220  -5.3935  -5.3696
    -5.3653  -5.3470  -5.3308  -5.3121  -5.1682  -5.1512  -4.9655  -4.7783
    -3.9854  -3.9040  -3.8916  -3.8674  -3.8613  -3.8464  -3.8268  -3.8109
    -3.3951  -3.3758  -3.3519  -3.3436  -3.3188  -3.2952  -3.2719  -3.2449
    -0.9403  -0.8559  -0.7883  -0.7353  -0.7035  -0.6643  -0.6057  -0.5262
    -0.4154  -0.3721  -0.3221  -0.2490  -0.2385  -0.2222  -0.2105  -0.1721
    -0.1448  -0.1161  -0.0625  -0.0281   0.1822   0.2385   0.2793   0.3062
     0.3785   0.4263   0.4401   0.4549   0.4936   0.5100   0.5541   0.5982
     0.6350   0.6721   0.6991   0.7447   0.7876   0.8160   0.8589   0.8809
     0.9077   0.9307   0.9863   1.0052   1.0168   1.0407   1.0567   1.0707
     1.0893   1.1067   1.1459   1.1566   1.1697   1.1916   1.2184   1.2399
     1.2533   1.2612   1.2783   1.2952   1.3117   1.3500   1.3709   1.3831
     1.4055   1.4346   1.4445   1.4532   1.4610   1.4819   1.5017   1.5322
     1.5655   1.5792   1.6005   1.6486   1.6720   1.6878   1.7923   1.8560

          k =-0.1234-0.3676 0.3680 (311927 PWs)   bands (ev):

   -18.0626 -17.9712 -17.9628 -17.9553 -17.9085 -17.8972 -17.8649 -17.8589
   -15.8402 -15.7449 -15.7439 -15.7399 -15.7386 -15.6491 -15.6439 -15.5986
   -14.3699 -14.3495 -14.3442 -14.3310 -14.3256 -14.3202 -14.3185 -14.3144
   -14.3109 -14.3065 -14.3051 -14.3044 -14.3037 -14.3015 -14.2986 -14.2867
   -14.2839 -14.2815 -14.2798 -14.2785 -14.2776 -14.2760 -14.2720 -14.2706
   -14.2687 -14.2678 -14.2670 -14.2668 -14.2637 -14.2621 -14.2579 -14.2519
   -14.2486 -14.2476 -14.2420 -14.2391 -14.2359 -14.2290 -14.2217 -14.2174
    -9.8612  -9.8263  -9.7882  -9.7583  -9.7379  -9.6961  -9.6896  -9.6453
    -9.5811  -9.4915  -9.4624  -9.4247  -9.4126  -9.3690  -9.3484  -9.3106
    -9.2404  -9.2089  -9.1852  -9.1684  -9.1413  -9.0951  -9.0871  -9.0751
    -9.0676  -9.0433  -9.0150  -9.0055  -8.9810  -8.9713  -8.9243  -8.8914
    -7.9062  -7.7705  -7.7575  -7.7557  -7.7433  -7.7115  -7.6816  -7.6759
    -7.1877  -7.1732  -7.1415  -7.1363  -7.1227  -7.0456  -7.0280  -6.9715
    -5.6949  -5.6144  -5.5256  -5.4806  -5.4346  -5.4268  -5.4188  -5.3671
    -5.3565  -5.3414  -5.3177  -5.2847  -5.2482  -5.0894  -5.0580  -4.9012
    -3.9855  -3.9008  -3.8901  -3.8677  -3.8642  -3.8473  -3.8273  -3.8106
    -3.3951  -3.3758  -3.3495  -3.3458  -3.3182  -3.2951  -3.2726  -3.2454
    -0.8298  -0.7887  -0.6465  -0.6223  -0.5311  -0.4764  -0.3912  -0.3663
    -0.3573  -0.3324  -0.2967  -0.2612  -0.2277  -0.1954  -0.1926  -0.1617
    -0.1481  -0.1033  -0.0717  -0.0188   0.0635   0.1529   0.2007   0.2098
     0.2660   0.3021   0.3144   0.3615   0.3826   0.4456   0.5202   0.5570
     0.6085   0.6447   0.6875   0.7265   0.7377   0.7778   0.7958   0.8072
     0.8389   0.8575   0.8875   0.9205   0.9487   0.9807   1.0291   1.0645
     1.1066   1.1338   1.1448   1.1690   1.1957   1.2099   1.2401   1.2569
     1.2654   1.2851   1.3028   1.3203   1.3329   1.3495   1.3639   1.3728
     1.4047   1.4209   1.4298   1.4482   1.4662   1.4798   1.4887   1.5072
     1.5323   1.5496   1.6000   1.6176   1.6330   1.6717   1.6821   1.7561

          k =-0.1234 0.3676-0.3680 (311927 PWs)   bands (ev):

   -18.0626 -17.9712 -17.9628 -17.9553 -17.9085 -17.8972 -17.8649 -17.8589
   -15.8402 -15.7449 -15.7439 -15.7399 -15.7386 -15.6491 -15.6439 -15.5986
   -14.3699 -14.3495 -14.3442 -14.3310 -14.3256 -14.3202 -14.3185 -14.3144
   -14.3109 -14.3065 -14.3051 -14.3044 -14.3037 -14.3015 -14.2986 -14.2867
   -14.2839 -14.2815 -14.2798 -14.2785 -14.2776 -14.2760 -14.2720 -14.2706
   -14.2687 -14.2678 -14.2670 -14.2668 -14.2637 -14.2621 -14.2579 -14.2519
   -14.2486 -14.2476 -14.2420 -14.2391 -14.2359 -14.2290 -14.2217 -14.2174
    -9.8619  -9.8271  -9.7907  -9.7561  -9.7369  -9.6944  -9.6890  -9.6454
    -9.5784  -9.4903  -9.4670  -9.4249  -9.4120  -9.3724  -9.3538  -9.3051
    -9.2414  -9.2112  -9.1780  -9.1671  -9.1418  -9.1003  -9.0885  -9.0706
    -9.0610  -9.0498  -9.0182  -9.0039  -8.9775  -8.9733  -8.9243  -8.8918
    -7.9064  -7.7706  -7.7575  -7.7558  -7.7432  -7.7115  -7.6815  -7.6757
    -7.1876  -7.1731  -7.1415  -7.1364  -7.1227  -7.0456  -7.0279  -6.9715
    -5.6961  -5.6137  -5.5261  -5.4802  -5.4317  -5.4280  -5.4186  -5.3675
    -5.3584  -5.3421  -5.3174  -5.2810  -5.2507  -5.0889  -5.0581  -4.9017
    -3.9852  -3.9013  -3.8901  -3.8678  -3.8643  -3.8469  -3.8271  -3.8108
    -3.3950  -3.3757  -3.3496  -3.3457  -3.3179  -3.2954  -3.2725  -3.2454
    -0.8289  -0.7744  -0.6450  -0.6122  -0.5435  -0.4837  -0.3981  -0.3724
    -0.3660  -0.3398  -0.3016  -0.2641  -0.2308  -0.1994  -0.1870  -0.1668
    -0.1404  -0.0910  -0.0737  -0.0328   0.0734   0.1644   0.2102   0.2209
     0.2777   0.3082   0.3183   0.3465   0.3754   0.4463   0.5105   0.5616
     0.6139   0.6456   0.6908   0.7262   0.7403   0.7635   0.7970   0.8176
     0.8317   0.8593   0.8899   0.9294   0.9535   0.9792   1.0073   1.0687
     1.1074   1.1287   1.1400   1.1784   1.2009   1.2110   1.2244   1.2524
     1.2633   1.2877   1.3040   1.3133   1.3246   1.3490   1.3683   1.3854
     1.4051   1.4183   1.4383   1.4562   1.4665   1.4747   1.4950   1.5128
     1.5371   1.5399   1.5870   1.6243   1.6471   1.6734   1.6797   1.7335

          k = 0.1234-0.3676-0.3680 (311927 PWs)   bands (ev):

   -18.0626 -17.9712 -17.9628 -17.9553 -17.9085 -17.8972 -17.8649 -17.8589
   -15.8402 -15.7449 -15.7439 -15.7399 -15.7386 -15.6491 -15.6439 -15.5986
   -14.3699 -14.3495 -14.3442 -14.3310 -14.3256 -14.3202 -14.3185 -14.3144
   -14.3109 -14.3065 -14.3051 -14.3044 -14.3036 -14.3015 -14.2986 -14.2867
   -14.2839 -14.2815 -14.2798 -14.2785 -14.2776 -14.2760 -14.2720 -14.2706
   -14.2687 -14.2678 -14.2670 -14.2668 -14.2637 -14.2621 -14.2579 -14.2519
   -14.2486 -14.2476 -14.2420 -14.2391 -14.2359 -14.2290 -14.2217 -14.2174
    -9.8611  -9.8263  -9.7880  -9.7584  -9.7383  -9.6964  -9.6890  -9.6470
    -9.5803  -9.4880  -9.4606  -9.4296  -9.4162  -9.3637  -9.3458  -9.3146
    -9.2410  -9.2114  -9.1817  -9.1641  -9.1477  -9.0975  -9.0909  -9.0721
    -9.0586  -9.0447  -9.0217  -9.0036  -8.9771  -8.9728  -8.9242  -8.8920
    -7.9062  -7.7706  -7.7583  -7.7546  -7.7435  -7.7115  -7.6819  -7.6758
    -7.1877  -7.1731  -7.1415  -7.1364  -7.1227  -7.0456  -7.0279  -6.9715
    -5.6937  -5.6225  -5.5198  -5.4666  -5.4353  -5.4265  -5.4169  -5.3771
    -5.3653  -5.3442  -5.3221  -5.2759  -5.2443  -5.0888  -5.0603  -4.9004
    -3.9852  -3.9013  -3.8903  -3.8669  -3.8648  -3.8472  -3.8270  -3.8108
    -3.3951  -3.3758  -3.3494  -3.3460  -3.3182  -3.2953  -3.2723  -3.2453
    -0.8259  -0.7890  -0.6419  -0.6204  -0.5417  -0.4746  -0.3943  -0.3754
    -0.3396  -0.3203  -0.2946  -0.2805  -0.2332  -0.2167  -0.1896  -0.1735
    -0.1407  -0.1013  -0.0632  -0.0152   0.0607   0.1619   0.2069   0.2164
     0.2723   0.2989   0.3315   0.3436   0.3873   0.4425   0.5206   0.5487
     0.6159   0.6554   0.6740   0.7043   0.7490   0.7784   0.8022   0.8090
     0.8336   0.8586   0.8851   0.9297   0.9517   0.9768   1.0253   1.0631
     1.1107   1.1181   1.1326   1.1807   1.1981   1.2174   1.2465   1.2591
     1.2639   1.2771   1.3107   1.3150   1.3342   1.3515   1.3618   1.3696
     1.4079   1.4232   1.4359   1.4432   1.4641   1.4814   1.4939   1.5133
     1.5211   1.5585   1.5838   1.6200   1.6484   1.6724   1.6818   1.7365

          k =-0.3702-0.1225 0.1227 (311928 PWs)   bands (ev):

   -18.0625 -17.9711 -17.9628 -17.9553 -17.9086 -17.8972 -17.8646 -17.8592
   -15.8388 -15.7453 -15.7445 -15.7408 -15.7381 -15.6489 -15.6439 -15.5988
   -14.3704 -14.3495 -14.3436 -14.3310 -14.3256 -14.3210 -14.3191 -14.3136
   -14.3108 -14.3085 -14.3066 -14.3045 -14.3035 -14.2989 -14.2986 -14.2857
   -14.2839 -14.2809 -14.2798 -14.2785 -14.2776 -14.2762 -14.2720 -14.2706
   -14.2687 -14.2678 -14.2677 -14.2670 -14.2637 -14.2612 -14.2579 -14.2519
   -14.2488 -14.2476 -14.2420 -14.2391 -14.2359 -14.2290 -14.2218 -14.2174
    -9.8592  -9.8115  -9.8023  -9.7402  -9.7344  -9.7224  -9.6867  -9.6518
    -9.5878  -9.5181  -9.4537  -9.4134  -9.3778  -9.3667  -9.3288  -9.2997
    -9.2570  -9.2147  -9.1876  -9.1731  -9.1439  -9.1185  -9.1068  -9.0748
    -9.0597  -9.0444  -9.0251  -8.9910  -8.9791  -8.9439  -8.9301  -8.8982
    -7.9052  -7.7765  -7.7594  -7.7549  -7.7478  -7.7106  -7.6799  -7.6761
    -7.1869  -7.1725  -7.1426  -7.1346  -7.1215  -7.0459  -7.0271  -6.9714
    -5.7931  -5.6152  -5.5798  -5.4396  -5.4340  -5.4191  -5.4034  -5.3850
    -5.3689  -5.3396  -5.3243  -5.2970  -5.2152  -5.1436  -4.9243  -4.7623
    -3.9868  -3.9036  -3.8877  -3.8721  -3.8608  -3.8470  -3.8267  -3.8099
    -3.3948  -3.3735  -3.3525  -3.3452  -3.3182  -3.2965  -3.2661  -3.2516
    -0.9279  -0.8351  -0.8173  -0.7862  -0.7206  -0.6986  -0.6665  -0.6004
    -0.4464  -0.3639  -0.3140  -0.2709  -0.2195  -0.2154  -0.1893  -0.1504
    -0.1235  -0.0869  -0.0562  -0.0335   0.1119   0.2182   0.3000   0.3230
     0.3790   0.4088   0.4322   0.4756   0.5000   0.5205   0.5318   0.6101
     0.6415   0.7199   0.7458   0.7613   0.8059   0.8331   0.8727   0.8882
     0.9196   0.9319   0.9708   1.0081   1.0256   1.0515   1.0662   1.0919
     1.1002   1.1259   1.1343   1.1430   1.1709   1.1938   1.1995   1.2299
     1.2615   1.2746   1.2919   1.3165   1.3276   1.3499   1.3673   1.3946
     1.4145   1.4184   1.4309   1.4427   1.4828   1.4931   1.5339   1.5486
     1.5646   1.5723   1.6094   1.6440   1.6693   1.7152   1.7878   1.8718

          k =-0.3702 0.1225-0.1227 (311928 PWs)   bands (ev):

   -18.0625 -17.9711 -17.9628 -17.9553 -17.9086 -17.8972 -17.8646 -17.8592
   -15.8388 -15.7453 -15.7445 -15.7408 -15.7381 -15.6489 -15.6439 -15.5988
   -14.3704 -14.3495 -14.3436 -14.3310 -14.3256 -14.3210 -14.3191 -14.3136
   -14.3108 -14.3085 -14.3066 -14.3045 -14.3035 -14.2989 -14.2986 -14.2857
   -14.2839 -14.2809 -14.2798 -14.2785 -14.2776 -14.2762 -14.2720 -14.2706
   -14.2687 -14.2678 -14.2677 -14.2670 -14.2637 -14.2612 -14.2579 -14.2519
   -14.2488 -14.2476 -14.2420 -14.2391 -14.2359 -14.2290 -14.2218 -14.2174
    -9.8596  -9.8148  -9.8032  -9.7375  -9.7336  -9.7186  -9.6861  -9.6521
    -9.5870  -9.5184  -9.4576  -9.4139  -9.3902  -9.3655  -9.3157  -9.2979
    -9.2561  -9.2142  -9.1960  -9.1640  -9.1523  -9.1201  -9.1008  -9.0674
    -9.0657  -9.0466  -9.0267  -8.9931  -8.9754  -8.9444  -8.9274  -8.9004
    -7.9054  -7.7766  -7.7594  -7.7550  -7.7476  -7.7106  -7.6797  -7.6760
    -7.1869  -7.1724  -7.1426  -7.1346  -7.1216  -7.0459  -7.0270  -6.9715
    -5.7939  -5.6159  -5.5783  -5.4404  -5.4339  -5.4193  -5.4042  -5.3890
    -5.3595  -5.3368  -5.3224  -5.3061  -5.2154  -5.1428  -4.9238  -4.7628
    -3.9865  -3.9040  -3.8878  -3.8721  -3.8608  -3.8466  -3.8266  -3.8101
    -3.3946  -3.3734  -3.3525  -3.3452  -3.3180  -3.2967  -3.2660  -3.2517
    -0.9229  -0.8379  -0.8096  -0.7880  -0.7117  -0.6983  -0.6665  -0.6050
    -0.4601  -0.3781  -0.3131  -0.2729  -0.2279  -0.2169  -0.1959  -0.1415
    -0.1182  -0.0884  -0.0597  -0.0335   0.1279   0.2351   0.2761   0.3356
     0.3853   0.4040   0.4432   0.4734   0.4949   0.5304   0.5345   0.6163
     0.6401   0.7169   0.7484   0.7578   0.8098   0.8442   0.8633   0.8791
     0.9233   0.9333   0.9661   0.9999   1.0285   1.0477   1.0545   1.0746
     1.1043   1.1247   1.1380   1.1524   1.1746   1.1880   1.2108   1.2393
     1.2588   1.2794   1.2917   1.3150   1.3294   1.3491   1.3727   1.3854
     1.3984   1.4163   1.4326   1.4494   1.4712   1.4902   1.5343   1.5561
     1.5699   1.5902   1.6178   1.6422   1.6675   1.6988   1.7981   1.8545

          k = 0.3702-0.1225-0.1227 (311928 PWs)   bands (ev):

   -18.0625 -17.9711 -17.9628 -17.9553 -17.9086 -17.8972 -17.8646 -17.8592
   -15.8388 -15.7453 -15.7445 -15.7408 -15.7381 -15.6489 -15.6439 -15.5988
   -14.3704 -14.3495 -14.3436 -14.3310 -14.3256 -14.3210 -14.3191 -14.3136
   -14.3108 -14.3085 -14.3066 -14.3045 -14.3035 -14.2989 -14.2986 -14.2857
   -14.2839 -14.2809 -14.2798 -14.2785 -14.2776 -14.2762 -14.2720 -14.2706
   -14.2687 -14.2678 -14.2677 -14.2670 -14.2637 -14.2612 -14.2579 -14.2519
   -14.2488 -14.2476 -14.2420 -14.2391 -14.2359 -14.2290 -14.2218 -14.2174
    -9.8592  -9.8119  -9.8021  -9.7403  -9.7331  -9.7235  -9.6865  -9.6523
    -9.5878  -9.5168  -9.4528  -9.4153  -9.3814  -9.3678  -9.3227  -9.3008
    -9.2522  -9.2170  -9.1925  -9.1665  -9.1500  -9.1269  -9.0997  -9.0686
    -9.0638  -9.0448  -9.0224  -8.9943  -8.9787  -8.9420  -8.9296  -8.8995
    -7.9052  -7.7765  -7.7596  -7.7547  -7.7477  -7.7106  -7.6801  -7.6760
    -7.1869  -7.1724  -7.1426  -7.1346  -7.1216  -7.0459  -7.0270  -6.9714
    -5.7934  -5.6154  -5.5801  -5.4395  -5.4343  -5.4193  -5.4036  -5.3835
    -5.3631  -5.3396  -5.3222  -5.3040  -5.2164  -5.1438  -4.9232  -4.7625
    -3.9865  -3.9041  -3.8879  -3.8718  -3.8609  -3.8467  -3.8265  -3.8101
    -3.3948  -3.3735  -3.3525  -3.3453  -3.3182  -3.2966  -3.2659  -3.2516
    -0.9322  -0.8385  -0.8082  -0.7821  -0.7127  -0.6981  -0.6693  -0.6005
    -0.4576  -0.3674  -0.3205  -0.2679  -0.2259  -0.2166  -0.1913  -0.1462
    -0.1209  -0.0822  -0.0603  -0.0384   0.1164   0.2304   0.2998   0.3212
     0.3810   0.4126   0.4395   0.4717   0.4984   0.5171   0.5344   0.6096
     0.6392   0.7204   0.7470   0.7671   0.8159   0.8431   0.8478   0.8922
     0.9163   0.9463   0.9685   0.9985   1.0196   1.0338   1.0663   1.0848
     1.1025   1.1180   1.1339   1.1604   1.1842   1.1981   1.2110   1.2261
     1.2587   1.2735   1.2928   1.3049   1.3325   1.3553   1.3622   1.3904
     1.4034   1.4123   1.4307   1.4585   1.4683   1.4939   1.5301   1.5501
     1.5656   1.5890   1.6223   1.6432   1.6708   1.6987   1.7963   1.8604

          k =-0.3702-0.1225 0.3680 (311966 PWs)   bands (ev):

   -18.0625 -17.9711 -17.9628 -17.9553 -17.9086 -17.8972 -17.8646 -17.8592
   -15.8388 -15.7453 -15.7445 -15.7403 -15.7386 -15.6489 -15.6439 -15.5988
   -14.3698 -14.3494 -14.3442 -14.3310 -14.3256 -14.3195 -14.3190 -14.3148
   -14.3108 -14.3082 -14.3061 -14.3045 -14.3033 -14.3004 -14.2986 -14.2857
   -14.2839 -14.2810 -14.2798 -14.2785 -14.2776 -14.2758 -14.2720 -14.2706
   -14.2687 -14.2678 -14.2673 -14.2670 -14.2637 -14.2619 -14.2579 -14.2519
   -14.2490 -14.2476 -14.2420 -14.2391 -14.2359 -14.2290 -14.2218 -14.2174
    -9.8447  -9.8086  -9.7873  -9.7616  -9.7392  -9.7234  -9.6974  -9.6542
    -9.5784  -9.5032  -9.4801  -9.4289  -9.3896  -9.3543  -9.3485  -9.3140
    -9.2192  -9.2083  -9.1793  -9.1592  -9.1325  -9.1122  -9.1017  -9.0816
    -9.0578  -9.0457  -9.0272  -8.9973  -8.9872  -8.9465  -8.9330  -8.8997
    -7.9056  -7.7743  -7.7586  -7.7540  -7.7496  -7.7135  -7.6797  -7.6763
    -7.1869  -7.1724  -7.1413  -7.1353  -7.1221  -7.0459  -7.0271  -6.9713
    -5.6876  -5.5821  -5.5259  -5.5067  -5.4363  -5.4298  -5.4178  -5.3971
    -5.3767  -5.3410  -5.3365  -5.3147  -5.2029  -5.0564  -5.0384  -4.8871
    -3.9865  -3.8999  -3.8860  -3.8714  -3.8654  -3.8483  -3.8271  -3.8097
    -3.3947  -3.3733  -3.3507  -3.3464  -3.3183  -3.2964  -3.2661  -3.2516
    -0.8097  -0.7759  -0.7407  -0.7007  -0.6013  -0.5117  -0.4386  -0.3966
    -0.3606  -0.3002  -0.2806  -0.2264  -0.2137  -0.1977  -0.1857  -0.1525
    -0.1170  -0.0940  -0.0770  -0.0232   0.0529   0.1410   0.1737   0.2212
     0.2611   0.2967   0.3435   0.3903   0.4210   0.4293   0.4866   0.5119
     0.6546   0.6653   0.7180   0.7404   0.7780   0.7839   0.8045   0.8259
     0.8580   0.8750   0.9025   0.9354   0.9503   1.0026   1.0123   1.0632
     1.1110   1.1458   1.1756   1.1823   1.1927   1.2078   1.2254   1.2459
     1.2563   1.2840   1.3133   1.3261   1.3376   1.3532   1.3658   1.3845
     1.3995   1.4129   1.4222   1.4477   1.4674   1.4780   1.4819   1.5155
     1.5331   1.5443   1.6002   1.6330   1.6542   1.6912   1.7282   1.7587

          k =-0.3702 0.1225-0.3680 (311966 PWs)   bands (ev):

   -18.0625 -17.9711 -17.9628 -17.9553 -17.9086 -17.8972 -17.8646 -17.8592
   -15.8388 -15.7453 -15.7445 -15.7403 -15.7386 -15.6489 -15.6439 -15.5988
   -14.3698 -14.3494 -14.3442 -14.3310 -14.3256 -14.3195 -14.3190 -14.3148
   -14.3108 -14.3082 -14.3061 -14.3045 -14.3033 -14.3004 -14.2986 -14.2857
   -14.2839 -14.2810 -14.2798 -14.2785 -14.2776 -14.2758 -14.2720 -14.2706
   -14.2687 -14.2678 -14.2673 -14.2670 -14.2637 -14.2619 -14.2579 -14.2519
   -14.2490 -14.2476 -14.2420 -14.2391 -14.2359 -14.2290 -14.2218 -14.2174
    -9.8446  -9.8121  -9.7908  -9.7587  -9.7373  -9.7182  -9.6968  -9.6552
    -9.5760  -9.5051  -9.4848  -9.4317  -9.3886  -9.3574  -9.3445  -9.3122
    -9.2185  -9.2097  -9.1749  -9.1578  -9.1409  -9.1090  -9.0973  -9.0836
    -9.0609  -9.0409  -9.0330  -8.9975  -8.9849  -8.9471  -8.9297  -8.9020
    -7.9058  -7.7745  -7.7583  -7.7542  -7.7494  -7.7136  -7.6796  -7.6762
    -7.1869  -7.1723  -7.1413  -7.1353  -7.1221  -7.0460  -7.0270  -6.9714
    -5.6894  -5.5818  -5.5241  -5.5064  -5.4374  -5.4312  -5.4178  -5.4013
    -5.3627  -5.3436  -5.3356  -5.3205  -5.2048  -5.0531  -5.0402  -4.8875
    -3.9862  -3.9004  -3.8862  -3.8714  -3.8654  -3.8481  -3.8269  -3.8099
    -3.3945  -3.3733  -3.3507  -3.3464  -3.3180  -3.2967  -3.2660  -3.2517
    -0.8052  -0.7708  -0.7390  -0.7028  -0.5776  -0.5222  -0.4342  -0.4098
    -0.3692  -0.3265  -0.2879  -0.2335  -0.2173  -0.2022  -0.1836  -0.1478
    -0.1226  -0.0975  -0.0703  -0.0469   0.0827   0.1721   0.1990   0.2452
     0.2671   0.2789   0.3417   0.3660   0.4116   0.4364   0.4860   0.5177
     0.6557   0.6797   0.7050   0.7512   0.7650   0.7814   0.8027   0.8178
     0.8581   0.8808   0.9134   0.9322   0.9482   1.0014   1.0077   1.0572
     1.1035   1.1484   1.1564   1.1814   1.2065   1.2140   1.2388   1.2541
[...]
    -0.5506  -0.5242  -0.4514  -0.4221  -0.3800  -0.3575  -0.3413  -0.3153
    -0.2963  -0.2696  -0.2541  -0.1985  -0.1848  -0.1553  -0.1257  -0.1125
    -0.0762  -0.0620  -0.0389   0.0094   0.1179   0.1602   0.1761   0.2349
     0.2760   0.2885   0.3061   0.3121   0.3612   0.3948   0.4050   0.4659
     0.6494   0.6750   0.6957   0.7436   0.7542   0.7909   0.8157   0.8356
     0.8773   0.8866   0.9221   0.9421   0.9557   0.9738   1.0000   1.0236
     1.0753   1.0964   1.1025   1.1131   1.1425   1.1784   1.1912   1.2158
     1.2912   1.3057   1.3364   1.3524   1.3692   1.3917   1.4066   1.4201
     1.4450   1.4544   1.4793   1.4862   1.5020   1.5096   1.5230   1.5457
     1.5620   1.5780   1.5936   1.6127   1.6278   1.6437   1.6641   1.7053

          k = 0.3703-0.3682-0.3691 (312036 PWs)   bands (ev):

   -18.0084 -17.9591 -17.9004 -17.8889 -17.8550 -17.8537 -17.8439 -17.7992
   -15.7898 -15.7360 -15.6883 -15.6865 -15.6774 -15.6320 -15.6169 -15.5423
   -14.3229 -14.3038 -14.2879 -14.2850 -14.2835 -14.2747 -14.2746 -14.2676
   -14.2663 -14.2606 -14.2598 -14.2542 -14.2511 -14.2504 -14.2444 -14.2411
   -14.2405 -14.2401 -14.2393 -14.2393 -14.2321 -14.2264 -14.2262 -14.2236
   -14.2225 -14.2192 -14.2176 -14.2150 -14.2143 -14.2122 -14.2115 -14.2052
   -14.2050 -14.2047 -14.1948 -14.1923 -14.1895 -14.1799 -14.1759 -14.1720
    -9.8001  -9.7566  -9.7450  -9.7154  -9.7020  -9.6788  -9.6686  -9.5967
    -9.5412  -9.4494  -9.4303  -9.3996  -9.3839  -9.3243  -9.3041  -9.2676
    -9.2366  -9.1816  -9.1468  -9.1355  -9.1162  -9.0676  -9.0334  -9.0182
    -9.0092  -8.9911  -8.9853  -8.9629  -8.9459  -8.9288  -8.9232  -8.8914
    -7.8574  -7.7562  -7.7148  -7.6997  -7.6952  -7.6695  -7.6502  -7.6225
    -7.1491  -7.1375  -7.0892  -7.0773  -7.0608  -7.0307  -7.0150  -6.9164
    -5.5440  -5.5127  -5.4162  -5.3905  -5.3791  -5.3608  -5.3461  -5.3338
    -5.3308  -5.3103  -5.2986  -5.2605  -5.1905  -5.1513  -5.1328  -4.9884
    -3.9399  -3.8797  -3.8571  -3.8309  -3.8238  -3.8199  -3.7966  -3.7542
    -3.3640  -3.3507  -3.2964  -3.2847  -3.2736  -3.2562  -3.2513  -3.1984
    -0.5956  -0.4982  -0.4589  -0.4126  -0.3802  -0.3413  -0.3212  -0.3106
    -0.3050  -0.2541  -0.2375  -0.1988  -0.1883  -0.1613  -0.1365  -0.1147
    -0.0986  -0.0668  -0.0265   0.0314   0.0858   0.1432   0.1937   0.2230
     0.2618   0.2891   0.3119   0.3224   0.3634   0.3885   0.4170   0.4710
     0.6370   0.6639   0.7067   0.7435   0.7578   0.7929   0.8217   0.8437
     0.8603   0.8971   0.9093   0.9397   0.9539   0.9734   1.0146   1.0202
     1.0700   1.0922   1.1023   1.1227   1.1417   1.1696   1.1956   1.2285
     1.2882   1.2972   1.3319   1.3556   1.3700   1.3923   1.4125   1.4228
     1.4446   1.4612   1.4805   1.4847   1.4982   1.5148   1.5277   1.5378
     1.5598   1.5721   1.5881   1.6140   1.6252   1.6525   1.6646   1.7042

     highest occupied level (ev):     2.1133

!    total energy              =  -16707.45443838 Ry
     Harris-Foulkes estimate   =  -16707.45443838 Ry
     estimated scf accuracy    <          6.5E-10 Ry

     total all-electron energy =   -678114.514123 Ry

     The total energy is the sum of the following terms:

     one-electron contribution =    -950.86304784 Ry
     hartree contribution      =     674.88163181 Ry
     xc contribution           =    -795.80601218 Ry
     ewald contribution        =   -1217.03671759 Ry
     DFT-D3 Dispersion         =      -0.64575062 Ry
     one-center paw contrib.   =  -14417.98454196 Ry

     convergence has been achieved in  10 iterations

     Forces acting on atoms (cartesian axes, Ry/au):

     atom    1 type  1   force =    -0.00023381    0.00019984    0.00055352
     atom    2 type  1   force =    -0.00102255   -0.00054448    0.00008035
     atom    3 type  1   force =    -0.00022746    0.00034392   -0.00001725
     atom    4 type  1   force =     0.00000065    0.00013171    0.00008901
     atom    5 type  1   force =     0.00025520   -0.00005135   -0.00016042
     atom    6 type  1   force =    -0.00006537    0.00034290    0.00005113
     atom    7 type  1   force =     0.00002601   -0.00058583    0.00067004
     atom    8 type  1   force =     0.00021638   -0.00009816   -0.00045877
     atom    9 type  2   force =    -0.00033036   -0.00055632   -0.00148089
     atom   10 type  2   force =     0.00027843   -0.00037123    0.00045923
     atom   11 type  2   force =     0.00004128    0.00029403    0.00024772
     atom   12 type  2   force =     0.00009439   -0.00117305    0.00121359
     atom   13 type  2   force =     0.00003437   -0.00001903   -0.00084287
     atom   14 type  2   force =     0.00030028   -0.00067562   -0.00099489
     atom   15 type  2   force =    -0.00015143   -0.00141280   -0.00172694
     atom   16 type  2   force =     0.00003902   -0.00141384    0.00121726
     atom   17 type  2   force =     0.00160190   -0.00117407    0.00004928
     atom   18 type  2   force =     0.00216408    0.00042863   -0.00014676
     atom   19 type  2   force =    -0.00085374   -0.00050960    0.00074404
     atom   20 type  2   force =    -0.00139959   -0.00005207   -0.00030140
     atom   21 type  2   force =    -0.00026565   -0.00005657    0.00019654
     atom   22 type  2   force =     0.00074282   -0.00004589    0.00007748
     atom   23 type  2   force =    -0.00308032    0.00003781    0.00044760
     atom   24 type  2   force =    -0.00018633   -0.00012922   -0.00000863
     atom   25 type  2   force =    -0.00039800    0.00103931    0.00057891
     atom   26 type  2   force =     0.00110683    0.00080111   -0.00082993
     atom   27 type  2   force =     0.00063082   -0.00021158   -0.00040285
     atom   28 type  2   force =     0.00137205   -0.00049712    0.00091263
     atom   29 type  2   force =    -0.00109906    0.00052631    0.00042363
     atom   30 type  2   force =    -0.00105781    0.00069881   -0.00028778
     atom   31 type  2   force =    -0.00084029    0.00005307   -0.00100362
     atom   32 type  2   force =     0.00057197    0.00106932    0.00007988
     atom   33 type  3   force =     0.00333775    0.00002739    0.00083911
     atom   34 type  3   force =     0.00210834   -0.00041282    0.00077422
     atom   35 type  3   force =    -0.00208455   -0.00072263   -0.00117013
     atom   36 type  3   force =    -0.00421866   -0.00124528   -0.00211410
     atom   37 type  3   force =     0.00168748   -0.00223065    0.00060809
     atom   38 type  3   force =     0.00048607   -0.00084890    0.00498590
     atom   39 type  3   force =     0.00309057   -0.00100819    0.00159436
     atom   40 type  3   force =    -0.00203631   -0.00090086   -0.00304218
     atom   41 type  4   force =    -0.00176947   -0.00012773   -0.00132163
     atom   42 type  4   force =     0.00183960    0.00238147    0.00188852
     atom   43 type  4   force =     0.00164363   -0.00215602   -0.00085230
     atom   44 type  4   force =     0.00081593    0.00081492    0.00144591
     atom   45 type  4   force =     0.00159706    0.00084430   -0.00051846
     atom   46 type  4   force =    -0.00112749   -0.00048323   -0.00090858
     atom   47 type  4   force =    -0.00135368    0.00049228    0.00048641
     atom   48 type  4   force =     0.00169954    0.00029771    0.00095057
     atom   49 type  4   force =    -0.00136205    0.00084162   -0.00003779
     atom   50 type  4   force =     0.00265381   -0.00172028    0.00092078
     atom   51 type  4   force =     0.00003668    0.00123507    0.00110437
     atom   52 type  4   force =     0.00139755    0.00194536   -0.00050234
     atom   53 type  4   force =    -0.00074059   -0.00026169    0.00034977
     atom   54 type  4   force =    -0.00132997    0.00088403   -0.00146210
     atom   55 type  4   force =    -0.00199586    0.00139312    0.00023089
     atom   56 type  4   force =     0.00184246   -0.00150822    0.00137880
     atom   57 type  5   force =    -0.00086285   -0.00024957    0.00050307
     atom   58 type  5   force =    -0.00228151   -0.00091629    0.00036655
     atom   59 type  5   force =     0.00088820   -0.00127376    0.00079466
     atom   60 type  5   force =     0.00210808    0.00020956    0.00026458
     atom   61 type  5   force =    -0.00101355   -0.00083514   -0.00025489
     atom   62 type  5   force =     0.00067035   -0.00168953   -0.00163443
     atom   63 type  5   force =    -0.00149883   -0.00068677   -0.00087410
     atom   64 type  5   force =     0.00044043   -0.00043683    0.00109872
     atom   65 type  5   force =     0.00069602    0.00077160   -0.00115047
     atom   66 type  5   force =    -0.00212714    0.00398872   -0.00028380
     atom   67 type  5   force =    -0.00019188    0.00094084   -0.00086367
     atom   68 type  5   force =     0.00024698   -0.00164931    0.00048639
     atom   69 type  5   force =    -0.00052593    0.00286793   -0.00050122
     atom   70 type  5   force =     0.00077316   -0.00105926   -0.00025946
     atom   71 type  5   force =     0.00259233   -0.00043598   -0.00038831
     atom   72 type  5   force =    -0.00111214    0.00200007   -0.00050485
     atom   73 type  5   force =    -0.00148026   -0.00164325   -0.00167179
     atom   74 type  5   force =    -0.00099324   -0.00207843   -0.00220368
     atom   75 type  5   force =    -0.00155169    0.00031894    0.00139842
     atom   76 type  5   force =     0.00183108   -0.00029822   -0.00128878
     atom   77 type  5   force =    -0.00097487   -0.00121129   -0.00067516
     atom   78 type  5   force =     0.00000466    0.00145042   -0.00023685
     atom   79 type  5   force =    -0.00056493    0.00125586   -0.00071972
     atom   80 type  5   force =    -0.00055373    0.00024833    0.00124978
     atom   81 type  5   force =    -0.00014768    0.00060044    0.00048679
     atom   82 type  5   force =    -0.00030851   -0.00233762   -0.00164911
     atom   83 type  5   force =     0.00044206    0.00151404    0.00131566
     atom   84 type  5   force =     0.00031916    0.00067098   -0.00078090
     atom   85 type  5   force =    -0.00136598   -0.00006581    0.00033706
     atom   86 type  5   force =     0.00030132    0.00277369   -0.00040366
     atom   87 type  5   force =    -0.00076269    0.00096542    0.00041767
     atom   88 type  5   force =    -0.00030030    0.00071201   -0.00017386
     atom   89 type  5   force =     0.00232397    0.00048797    0.00216154
     atom   90 type  5   force =     0.00061147    0.00189769    0.00095534
     atom   91 type  5   force =     0.00035890   -0.00120920   -0.00101860
     atom   92 type  5   force =    -0.00178618   -0.00085690    0.00199257
     atom   93 type  5   force =     0.00052581    0.00203008    0.00037328
     atom   94 type  5   force =     0.00064400   -0.00158900   -0.00079740
     atom   95 type  5   force =    -0.00053452    0.00059261   -0.00019146
     atom   96 type  5   force =     0.00067789    0.00030524   -0.00073283

     Total force =     0.020616     Total SCF correction =     0.000074


     Computing stress (Cartesian axis) and pressure

          total   stress  (Ry/bohr**3)                   (kbar)     P=    0.12
   0.00000403  -0.00000006  -0.00000939          0.59     -0.01     -1.38
  -0.00000006   0.00000279   0.00000091         -0.01      0.41      0.13
  -0.00000939   0.00000091  -0.00000440         -1.38      0.13     -0.65


     number of scf cycles    =  23
     number of bfgs steps    =  22

     enthalpy old            =  -16707.4540146936 Ry
     enthalpy new            =  -16707.4544383785 Ry

     CASE: enthalpy_new < enthalpy_old

     new trust radius        =       0.0790287637 bohr
     new conv_thr            =       0.0000000042 Ry

     new unit-cell volume =  13976.51050 a.u.^3 (  2071.10515 Ang^3 )
     density =      4.06481 g/cm^3

CELL_PARAMETERS (alat= 23.71984200)
   1.012588159   0.000000000   0.000000000
   0.000000000   1.018363644   0.000000000
   0.000000000   0.000000000   1.015611590

ATOMIC_POSITIONS (crystal)
Pb      -0.013752673  -0.019000689  -0.000292945
Pb       0.487324721  -0.021929750   0.005030605
Pb      -0.009970714   0.483855312   0.009471572
Pb       0.022836433  -0.016011634   0.507404600
Pb       0.486419930   0.479916448  -0.000850296
Pb       0.022693571   0.482137903   0.506391019
Pb       0.525445549  -0.017288039   0.505658045
Pb       0.520923831   0.485822888   0.505175461
I        0.235508686  -0.008013220  -0.030376631
I        0.734666727  -0.010808381   0.038892899
I        0.236410531   0.486235069   0.064545461
I        0.271649975  -0.024716294   0.520730080
I        0.736549147   0.484423139  -0.044227622
I        0.274158222   0.483717247   0.460087088
I        0.771984280  -0.008340033   0.479604315
I        0.775964846   0.465674240   0.536629505
I       -0.032935880   0.235205994   0.004723846
I        0.465479130   0.229519006   0.012193756
I       -0.025615517   0.733127615  -0.003474440
I        0.048049655   0.233991916   0.500437031
I        0.471641267   0.730463283  -0.001502369
I        0.015534637   0.733784016   0.508970933
I        0.535197473   0.232215943   0.505428940
I        0.545834418   0.732979049   0.514974904
I        0.032146617  -0.031927145   0.253302405
I        0.468896691  -0.034768058   0.256537649
I       -0.045132118   0.482507590   0.257258551
I       -0.039426289  -0.023875483   0.752619222
I        0.552417741   0.479765262   0.250348606
I        0.053577303   0.478060632   0.758607747
I        0.537257098  -0.025581615   0.758316701
I        0.453555604   0.468407980   0.751747961
C        0.242290658   0.254359432   0.257006642
C        0.757076397   0.255022315   0.269359316
C        0.249574662   0.744317819   0.277948354
C        0.259410505   0.249306127   0.736467064
C        0.754208703   0.791689122   0.254734226
C        0.253685027   0.779050492   0.744682807
C        0.748303084   0.257583969   0.754101618
C        0.755155754   0.746962242   0.738903717
N        0.194160938   0.205553799   0.179992720
N        0.684109104   0.216989910   0.207078667
N        0.161478526   0.691424367   0.268868010
N        0.189774098   0.232026918   0.810638891
N        0.663272824   0.743166781   0.248318546
N        0.170728756   0.738909826   0.791073956
N        0.702072362   0.208232712   0.831974880
N        0.684166781   0.729343433   0.811534187
N        0.313330134   0.212020170   0.318411292
N        0.844743544   0.206411903   0.294013382
N        0.342103685   0.709608433   0.248310037
N        0.341596903   0.189696205   0.717803559
N        0.846902893   0.746646879   0.256843306
N        0.333768105   0.724418264   0.709579153
N        0.809164016   0.213391515   0.683685319
N        0.837077884   0.686751274   0.721670573
H        0.223176490   0.336684889   0.270204322
H        0.744639479   0.332815191   0.302901800
H        0.245640306   0.822635248   0.312254970
H        0.246424836   0.317059347   0.685975731
H        0.752977560   0.876898806   0.259004971
H        0.256584735   0.864012939   0.736419099
H        0.736667404   0.342132510   0.748385560
H        0.745130701   0.815445596   0.688517245
H        0.207236493   0.128861976   0.161826577
H        0.692536160   0.146344188   0.169145687
H        0.158723577   0.617480451   0.238188242
H        0.195987327   0.170627341   0.862008149
H        0.654373970   0.663283449   0.246268164
H        0.157867296   0.660078278   0.797654522
H        0.706117970   0.129139776   0.842029670
H        0.689143292   0.666058237   0.861030754
H        0.140508337   0.244505671   0.134792489
H        0.619210379   0.261431403   0.191560754
H        0.095029418   0.721031693   0.301689047
H        0.127807143   0.282231200   0.818722616
H        0.597203115   0.788385944   0.248961235
H        0.112672442   0.786482216   0.818498880
H        0.657467906   0.248648206   0.884758389
H        0.622081197   0.779301320   0.819257635
H        0.338172510   0.136238563   0.310248668
H        0.863002046   0.133273190   0.267823977
H        0.352142007   0.638322104   0.213798303
H        0.359383676   0.125901451   0.762246411
H        0.858801780   0.667279270   0.253475592
H        0.340284541   0.644813608   0.718608758
H        0.828603132   0.135593723   0.685237593
H        0.851117278   0.620510169   0.764014851
H        0.346082920   0.255286456   0.377189505
H        0.897217202   0.239559204   0.344864637
H        0.404138804   0.760111420   0.252520933
H        0.393879667   0.209736901   0.659716114
H        0.911514143   0.794127515   0.259079498
H        0.394082123   0.760943624   0.671415926
H        0.839732774   0.258184516   0.624859708
H        0.888254548   0.704430239   0.662151416



     Writing output data file FAPbI83_vcrelax3.save/
     NEW-OLD atomic charge density approx. for the potential
     extrapolated charge  431.73537, renormalised to  432.00000

     total cpu time spent up to now is   579161.5 secs

     Self-consistent Calculation

     iteration #  1     ecut=   120.00 Ry     beta= 0.70
     Davidson diagonalization with overlap
     ethr =  1.00E-06,  avg # of iterations =  5.8

     total cpu time spent up to now is   584533.7 secs

     total energy              =  -16707.45400193 Ry
     Harris-Foulkes estimate   =  -16707.88383132 Ry
     estimated scf accuracy    <       0.00369533 Ry

     iteration #  2     ecut=   120.00 Ry     beta= 0.70
     Davidson diagonalization with overlap
     ethr =  8.55E-07,  avg # of iterations =  2.8

     total cpu time spent up to now is   587609.3 secs

     total energy              =  -16707.45479543 Ry
     Harris-Foulkes estimate   =  -16707.45542135 Ry
     estimated scf accuracy    <       0.00130977 Ry

     iteration #  3     ecut=   120.00 Ry     beta= 0.70
     Davidson diagonalization with overlap
     ethr =  3.03E-07,  avg # of iterations =  3.0

     total cpu time spent up to now is   590545.6 secs

     total energy              =  -16707.45511887 Ry
     Harris-Foulkes estimate   =  -16707.45516768 Ry
     estimated scf accuracy    <       0.00022064 Ry

     iteration #  4     ecut=   120.00 Ry     beta= 0.70
     Davidson diagonalization with overlap
     ethr =  5.11E-08,  avg # of iterations =  3.0

     total cpu time spent up to now is   593194.9 secs

     total energy              =  -16707.45515816 Ry
     Harris-Foulkes estimate   =  -16707.45519158 Ry
     estimated scf accuracy    <       0.00010612 Ry

     iteration #  5     ecut=   120.00 Ry     beta= 0.70
     Davidson diagonalization with overlap
     ethr =  2.46E-08,  avg # of iterations =  3.2

     total cpu time spent up to now is   595612.4 secs

     total energy              =  -16707.45518186 Ry
     Harris-Foulkes estimate   =  -16707.45518797 Ry
     estimated scf accuracy    <       0.00002992 Ry

     iteration #  6     ecut=   120.00 Ry     beta= 0.70
     Davidson diagonalization with overlap
     ethr =  6.93E-09,  avg # of iterations =  3.0

     total cpu time spent up to now is   598015.1 secs

     total energy              =  -16707.45518562 Ry
     Harris-Foulkes estimate   =  -16707.45518790 Ry
     estimated scf accuracy    <       0.00000427 Ry

     iteration #  7     ecut=   120.00 Ry     beta= 0.70
     Davidson diagonalization with overlap
     ethr =  9.89E-10,  avg # of iterations =  4.0

     total cpu time spent up to now is   600596.2 secs

     total energy              =  -16707.45518664 Ry
     Harris-Foulkes estimate   =  -16707.45518721 Ry
     estimated scf accuracy    <       0.00000117 Ry

     iteration #  8     ecut=   120.00 Ry     beta= 0.70
     Davidson diagonalization with overlap
     ethr =  2.71E-10,  avg # of iterations =  3.6

     total cpu time spent up to now is   602906.6 secs

     total energy              =  -16707.45518689 Ry
     Harris-Foulkes estimate   =  -16707.45518693 Ry
     estimated scf accuracy    <       0.00000008 Ry

     iteration #  9     ecut=   120.00 Ry     beta= 0.70
     Davidson diagonalization with overlap
