
     Program PWSCF v.6.4 starts on 11Jul2020 at 22:43: 1 

     This program is part of the open-source Quantum ESPRESSO suite
     for quantum simulation of materials; please cite
         "P. Giannozzi et al., J. Phys.:Condens. Matter 21 395502 (2009);
         "P. Giannozzi et al., J. Phys.:Condens. Matter 29 465901 (2017);
          URL http://www.quantum-espresso.org", 
     in publications or presentations arising from this work. More details at
     http://www.quantum-espresso.org/quote

     Parallel version (MPI), running on    32 processors

     MPI processes distributed on     1 nodes
     R & G space division:  proc/nbgrp/npool/nimage =      32
     Waiting for input...
     Reading input from standard input

     Current dimensions of program PWSCF are:
     Max number of different atomic species (ntypx) = 10
     Max number of k-points (npk) =  40000
     Max angular momentum in pseudopotentials (lmaxx) =  3
               file Pb.pbe-dn-kjpaw_psl.1.0.0.UPF: wavefunction(s)  6S 6P 5D renormalized
               file I.pbe-n-kjpaw_psl.1.0.0.UPF: wavefunction(s)  5S renormalized
               file C.pbe-n-kjpaw_psl.1.0.0.UPF: wavefunction(s)  2S 2P renormalized
               file N.pbe-n-kjpaw_psl.1.0.0.UPF: wavefunction(s)  2S renormalized
               file H.pbe-kjpaw_psl.1.0.0.UPF: wavefunction(s)  1S renormalized

     --------------------------------------------
     Parameters for DFT-D3 Dispersion Correction:
     --------------------------------------------
       Reference C6 values for interpolation: 

         atom   Coordination number   C6
         H          0.912             6.05
         H          0.000            15.18
         C          0.000            98.23
         C          0.987            86.49
         C          1.998            58.72
         C          2.999            51.56
         C          3.984            36.41
         N          0.000            50.54
         N          0.994            44.25
         N          2.014            39.35
         N          2.990            31.16
         I          0.000           703.93
         I          0.997           717.00
         Pb         0.000          1477.63
         Pb         0.938          1266.00
         Pb         1.936          1088.91
         Pb         2.908          1048.37
         Pb         3.910           910.57

       Values used:

         atom   Coordination number  R0_AB[au]  C6      C8
         Pb         4.754            4.041    910.57 144158.55
         Pb         4.833            4.041    910.57 144158.35
         Pb         4.701            4.041    910.57 144158.78
         Pb         4.813            4.041    910.57 144158.38
         Pb         4.686            4.041    910.58 144158.86
         Pb         4.753            4.041    910.57 144158.55
         Pb         4.818            4.041    910.57 144158.37
         Pb         4.723            4.041    910.57 144158.67
         I          1.935            3.532    717.00  65855.99
         I          1.954            3.532    717.00  65856.00
         I          1.832            3.532    717.00  65855.98
         I          1.936            3.532    717.00  65855.99
         I          1.867            3.532    717.00  65855.98
         I          1.906            3.532    717.00  65855.99
         I          1.980            3.532    717.00  65856.00
         I          1.941            3.532    717.00  65855.99
         I          1.868            3.532    717.00  65855.98
         I          1.922            3.532    717.00  65855.99
         I          1.938            3.532    717.00  65855.99
         I          1.966            3.532    717.00  65856.00
         I          1.905            3.532    717.00  65855.99
         I          1.955            3.532    717.00  65856.00
         I          1.933            3.532    717.00  65855.99
         I          1.916            3.532    717.00  65855.99
         I          1.881            3.532    717.00  65855.99
         I          1.945            3.532    717.00  65855.99
         I          1.920            3.532    717.00  65855.99
         I          1.956            3.532    717.00  65856.00
         I          1.861            3.532    717.00  65855.98
         I          1.874            3.532    717.00  65855.99
         I          1.993            3.532    717.00  65856.00
         I          1.931            3.532    717.00  65855.99
         C          3.066            2.750     51.07   1476.98
         C          3.070            2.750     51.05   1476.36
         C          3.070            2.750     51.05   1476.45
         C          3.071            2.750     51.04   1476.19
         C          3.078            2.750     51.00   1475.15
         C          3.071            2.750     51.04   1476.26
         C          3.068            2.750     51.06   1476.62
         C          3.067            2.750     51.06   1476.84
         N          3.102            2.478     31.23    689.04
         N          3.098            2.478     31.24    689.09
         N          3.111            2.478     31.23    688.94
         N          3.103            2.478     31.23    689.03
         N          3.099            2.478     31.24    689.07
         N          3.098            2.478     31.24    689.09
         N          3.106            2.478     31.23    689.00
         N          3.105            2.478     31.23    689.00
         N          3.100            2.478     31.23    689.07
         N          3.104            2.478     31.23    689.01
         N          3.100            2.478     31.23    689.06
         N          3.105            2.478     31.23    689.00
         N          3.101            2.478     31.23    689.05
         N          3.100            2.478     31.23    689.06
         N          3.100            2.478     31.23    689.06
         N          3.106            2.478     31.23    688.99
         H          1.016            2.062      6.17     74.55
         H          1.018            2.062      6.17     74.53
         H          1.019            2.062      6.17     74.53
         H          1.017            2.062      6.17     74.54
         H          1.024            2.062      6.16     74.48
         H          1.022            2.062      6.16     74.49
         H          1.017            2.062      6.17     74.54
         H          1.015            2.062      6.17     74.56
         H          1.026            2.062      6.16     74.46
         H          1.048            2.062      6.14     74.27
         H          1.062            2.062      6.14     74.17
         H          1.060            2.062      6.14     74.18
         H          1.054            2.062      6.14     74.22
         H          1.048            2.062      6.14     74.27
         H          1.034            2.062      6.15     74.39
         H          1.046            2.062      6.14     74.28
         H          1.073            2.062      6.13     74.08
         H          1.046            2.062      6.15     74.29
         H          1.038            2.062      6.15     74.35
         H          1.051            2.062      6.14     74.25
         H          1.029            2.062      6.16     74.43
         H          1.032            2.062      6.15     74.40
         H          1.065            2.062      6.13     74.14
         H          1.064            2.062      6.13     74.15
         H          1.044            2.062      6.15     74.30
         H          1.025            2.062      6.16     74.47
         H          1.027            2.062      6.16     74.45
         H          1.028            2.062      6.16     74.44
         H          1.058            2.062      6.14     74.19
         H          1.055            2.062      6.14     74.22
         H          1.050            2.062      6.14     74.25
         H          1.025            2.062      6.16     74.46
         H          1.041            2.062      6.15     74.33
         H          1.073            2.062      6.13     74.08
         H          1.036            2.062      6.15     74.36
         H          1.077            2.062      6.13     74.06
         H          1.038            2.062      6.15     74.35
         H          1.042            2.062      6.15     74.32
         H          1.047            2.062      6.14     74.28
         H          1.081            2.062      6.12     74.03

         Molecular C6 ( Ry / a.u.^6 ) =   1270628.42


     Subspace diagonalization in iterative solution of the eigenvalue problem:
     a serial algorithm will be used


     Parallelization info
     --------------------
     sticks:   dense  smooth     PW     G-vecs:    dense   smooth      PW
     Min         697     697    179                77727    77727   10169
     Max         698     698    180                77729    77729   10172
     Sum       22307   22307   5755              2487289  2487289  325455



     bravais-lattice index     =            0
     lattice parameter (alat)  =      24.0076  a.u.
     unit-cell volume          =   14004.8412 (a.u.)^3
     number of atoms/cell      =           96
     number of atomic types    =            5
     number of electrons       =       432.00
     number of Kohn-Sham states=          216
     kinetic-energy cutoff     =     120.0000  Ry
     charge density cutoff     =     480.0000  Ry
     convergence threshold     =      1.0E-07
     mixing beta               =       0.7000
     number of iterations used =            8  plain     mixing
     Exchange-correlation      = SLA PW PBX PBC ( 1  4  3  4 0 0)
     nstep                     =          100


     celldm(1)=  24.007641  celldm(2)=   0.000000  celldm(3)=   0.000000
     celldm(4)=   0.000000  celldm(5)=   0.000000  celldm(6)=   0.000000

     crystal axes: (cart. coord. in units of alat)
               a(1) = (   1.000000   0.000000   0.000000 )  
               a(2) = (   0.000000   1.012947   0.000000 )  
               a(3) = (   0.000000   0.000000   0.999178 )  

     reciprocal axes: (cart. coord. in units 2 pi/alat)
               b(1) = (  1.000000  0.000000  0.000000 )  
               b(2) = (  0.000000  0.987219  0.000000 )  
               b(3) = (  0.000000  0.000000  1.000822 )  


     PseudoPot. # 1 for Pb read from file:
     ../../../Pseudopotential/Pb.pbe-dn-kjpaw_psl.1.0.0.UPF
     MD5 check sum: 684fc8fbce61a260853528575e4d9ab7
     Pseudo is Projector augmented-wave + core cor, Zval = 14.0
     Generated using "atomic" code by A. Dal Corso v.6.3
     Shape of augmentation charge: PSQ
     Using radial grid of 1281 points,  6 beta functions with: 
                l(1) =   0
                l(2) =   0
                l(3) =   1
                l(4) =   1
                l(5) =   2
                l(6) =   2
     Q(r) pseudized with 0 coefficients 


     PseudoPot. # 2 for I  read from file:
     ../../../Pseudopotential/I.pbe-n-kjpaw_psl.1.0.0.UPF
     MD5 check sum: cd3d296c3308a581e1559a0c8a554cb5
     Pseudo is Projector augmented-wave + core cor, Zval =  7.0
     Generated using "atomic" code by A. Dal Corso v.6.3
     Shape of augmentation charge: PSQ
     Using radial grid of 1247 points,  6 beta functions with: 
                l(1) =   0
                l(2) =   0
                l(3) =   1
                l(4) =   1
                l(5) =   2
                l(6) =   2
     Q(r) pseudized with 0 coefficients 


     PseudoPot. # 3 for C  read from file:
     ../../../Pseudopotential/C.pbe-n-kjpaw_psl.1.0.0.UPF
     MD5 check sum: 5f16ad9a65e90284d1d834d4ab3b0f7d
     Pseudo is Projector augmented-wave + core cor, Zval =  4.0
     Generated using "atomic" code by A. Dal Corso v.6.3
     Shape of augmentation charge: PSQ
     Using radial grid of 1073 points,  4 beta functions with: 
                l(1) =   0
                l(2) =   0
                l(3) =   1
                l(4) =   1
     Q(r) pseudized with 0 coefficients 


     PseudoPot. # 4 for N  read from file:
     ../../../Pseudopotential/N.pbe-n-kjpaw_psl.1.0.0.UPF
     MD5 check sum: 14c48229446f9f2d411169a3abcbc3fa
     Pseudo is Projector augmented-wave + core cor, Zval =  5.0
     Generated using "atomic" code by A. Dal Corso v.6.3
     Shape of augmentation charge: PSQ
     Using radial grid of 1085 points,  4 beta functions with: 
                l(1) =   0
                l(2) =   0
                l(3) =   1
                l(4) =   1
     Q(r) pseudized with 0 coefficients 


     PseudoPot. # 5 for H  read from file:
     ../../../Pseudopotential/H.pbe-kjpaw_psl.1.0.0.UPF
     MD5 check sum: d81a744832360e4a8af0b0b5b123bc2a
     Pseudo is Projector augmented-wave, Zval =  1.0
     Generated using "atomic" code by A. Dal Corso v.6.3MaX
     Shape of augmentation charge: PSQ
     Using radial grid of  929 points,  2 beta functions with: 
                l(1) =   0
                l(2) =   0
     Q(r) pseudized with 0 coefficients 


     atomic species   valence    mass     pseudopotential
        Pb            14.00   207.97600     Pb( 1.00)
        I              7.00   126.90400     I ( 1.00)
        C              4.00    12.00000     C ( 1.00)
        N              5.00    14.00300     N ( 1.00)
        H              1.00     1.00700     H ( 1.00)

     No symmetry found



   Cartesian axes

     site n.     atom                  positions (alat units)
         1           Pb  tau(   1) = (  -0.0141508  -0.0247921   0.0094073  )
         2           Pb  tau(   2) = (   0.4837073  -0.0193281   0.0019537  )
         3           Pb  tau(   3) = (  -0.0155143   0.4875416   0.0098186  )
         4           Pb  tau(   4) = (   0.0233027  -0.0178482   0.5129500  )
         5           Pb  tau(   5) = (   0.4864415   0.4882392  -0.0038483  )
         6           Pb  tau(   6) = (   0.0220181   0.4853606   0.5053870  )
         7           Pb  tau(   7) = (   0.5258031  -0.0170958   0.5026729  )
         8           Pb  tau(   8) = (   0.5218012   0.4924611   0.4999879  )
         9           I   tau(   9) = (   0.2364780  -0.0081439  -0.0436103  )
        10           I   tau(  10) = (   0.7365878  -0.0049931   0.0422049  )
        11           I   tau(  11) = (   0.2355438   0.4949586   0.0572227  )
        12           I   tau(  12) = (   0.2719413  -0.0338805   0.5270923  )
        13           I   tau(  13) = (   0.7364135   0.4975497  -0.0534194  )
        14           I   tau(  14) = (   0.2711849   0.4798742   0.4601800  )
        15           I   tau(  15) = (   0.7724980  -0.0197272   0.4784190  )
        16           I   tau(  16) = (   0.7715051   0.4678935   0.5398931  )
        17           I   tau(  17) = (  -0.0282124   0.2365135   0.0064221  )
        18           I   tau(  18) = (   0.4719588   0.2366577   0.0082753  )
        19           I   tau(  19) = (  -0.0321144   0.7421467   0.0041205  )
        20           I   tau(  20) = (   0.0408136   0.2325598   0.5038446  )
        21           I   tau(  21) = (   0.4685784   0.7432638  -0.0003877  )
        22           I   tau(  22) = (   0.0285263   0.7381015   0.5127336  )
        23           I   tau(  23) = (   0.5300713   0.2340667   0.5027832  )
        24           I   tau(  24) = (   0.5414782   0.7407794   0.5009515  )
        25           I   tau(  25) = (   0.0354758  -0.0324591   0.2583847  )
        26           I   tau(  26) = (   0.4694361  -0.0187105   0.2536875  )
        27           I   tau(  27) = (  -0.0518625   0.4902250   0.2581441  )
        28           I   tau(  28) = (  -0.0403507  -0.0187215   0.7579840  )
        29           I   tau(  29) = (   0.5514468   0.4890916   0.2464299  )
        30           I   tau(  30) = (   0.0499676   0.4840663   0.7577963  )
        31           I   tau(  31) = (   0.5324121  -0.0254906   0.7556527  )
        32           I   tau(  32) = (   0.4565510   0.4770894   0.7470679  )
        33           C   tau(  33) = (   0.2358849   0.2549595   0.2503142  )
        34           C   tau(  34) = (   0.7635840   0.2577819   0.2765221  )
        35           C   tau(  35) = (   0.2460097   0.7423224   0.2962877  )
        36           C   tau(  36) = (   0.2579384   0.2544870   0.7327575  )
        37           C   tau(  37) = (   0.7501933   0.8012239   0.2520022  )
        38           C   tau(  38) = (   0.2547670   0.7806026   0.7475055  )
        39           C   tau(  39) = (   0.7335613   0.2563866   0.7556310  )
        40           C   tau(  40) = (   0.7591467   0.7614239   0.7346480  )
        41           N   tau(  41) = (   0.2040269   0.1988699   0.1695469  )
        42           N   tau(  42) = (   0.6931631   0.2397913   0.2027868  )
        43           N   tau(  43) = (   0.1647346   0.6877841   0.2627095  )
        44           N   tau(  44) = (   0.1872804   0.2365722   0.8062134  )
        45           N   tau(  45) = (   0.6655705   0.7511900   0.2196345  )
        46           N   tau(  46) = (   0.1786549   0.7387657   0.8038854  )
        47           N   tau(  47) = (   0.7040199   0.2046637   0.8401234  )
        48           N   tau(  48) = (   0.6883595   0.7540176   0.8097751  )
        49           N   tau(  49) = (   0.3147465   0.2300189   0.3125274  )
        50           N   tau(  50) = (   0.8469426   0.1991610   0.2943944  )
        51           N   tau(  51) = (   0.3425739   0.7317451   0.2604385  )
        52           N   tau(  52) = (   0.3388015   0.1932523   0.7125353  )
        53           N   tau(  53) = (   0.8385322   0.7565187   0.2817587  )
        54           N   tau(  54) = (   0.3273336   0.7267831   0.6972522  )
        55           N   tau(  55) = (   0.8119343   0.2290155   0.6939823  )
        56           N   tau(  56) = (   0.8365616   0.6943185   0.7203695  )
        57           H   tau(  57) = (   0.1941304   0.3282151   0.2671653  )
        58           H   tau(  58) = (   0.7513908   0.3267307   0.3265034  )
        59           H   tau(  59) = (   0.2330054   0.8004200   0.3585254  )
        60           H   tau(  60) = (   0.2491070   0.3257458   0.6855018  )
        61           H   tau(  61) = (   0.7466455   0.8869402   0.2543609  )
        62           H   tau(  62) = (   0.2575578   0.8662321   0.7414000  )
        63           H   tau(  63) = (   0.6899929   0.3275636   0.7347648  )
        64           H   tau(  64) = (   0.7534620   0.8281615   0.6806557  )
        65           H   tau(  65) = (   0.2390470   0.1300170   0.1474776  )
        66           H   tau(  66) = (   0.6982225   0.1769334   0.1525520  )
        67           H   tau(  67) = (   0.1719475   0.6300689   0.2064662  )
        68           H   tau(  68) = (   0.1908611   0.1716181   0.8540547  )
        69           H   tau(  69) = (   0.6583721   0.6707485   0.2188534  )
        70           H   tau(  70) = (   0.1657084   0.6592072   0.8075676  )
        71           H   tau(  71) = (   0.7402925   0.1374657   0.8653652  )
        72           H   tau(  72) = (   0.6889320   0.6933068   0.8628247  )
        73           H   tau(  73) = (   0.1415465   0.2235611   0.1245447  )
        74           H   tau(  74) = (   0.6312453   0.2904442   0.1943183  )
        75           H   tau(  75) = (   0.0943925   0.6962765   0.3003102  )
        76           H   tau(  76) = (   0.1267036   0.2887214   0.8155113  )
        77           H   tau(  77) = (   0.6019058   0.7937905   0.1958066  )
        78           H   tau(  78) = (   0.1257874   0.7857995   0.8417518  )
        79           H   tau(  79) = (   0.6413284   0.2305827   0.8838138  )
        80           H   tau(  80) = (   0.6294233   0.8087105   0.8139596  )
        81           H   tau(  81) = (   0.3590921   0.1634210   0.3021675  )
        82           H   tau(  82) = (   0.8640490   0.1330554   0.2519651  )
        83           H   tau(  83) = (   0.3613416   0.6809988   0.2010271  )
        84           H   tau(  84) = (   0.3534921   0.1256478   0.7532888  )
        85           H   tau(  85) = (   0.8512837   0.6767569   0.2789885  )
        86           H   tau(  86) = (   0.3354923   0.6467754   0.7041830  )
        87           H   tau(  87) = (   0.8568628   0.1631643   0.7071901  )
        88           H   tau(  88) = (   0.8460792   0.6294689   0.7668416  )
        89           H   tau(  89) = (   0.3334419   0.2785348   0.3738381  )
        90           H   tau(  90) = (   0.8977509   0.2181702   0.3542656  )
        91           H   tau(  91) = (   0.3998769   0.7814905   0.2867912  )
        92           H   tau(  92) = (   0.3911740   0.2129916   0.6542539  )
        93           H   tau(  93) = (   0.8996413   0.8040579   0.3038231  )
        94           H   tau(  94) = (   0.3828072   0.7643720   0.6526835  )
        95           H   tau(  95) = (   0.8284064   0.2752451   0.6302800  )
        96           H   tau(  96) = (   0.8892056   0.7058602   0.6603054  )

     number of k points=    32
                       cart. coord. in units 2pi/alat
        k(    1) = (   0.1250000   0.1234023   0.1251028), wk =   0.0625000
        k(    2) = (   0.1250000   0.1234023   0.3753084), wk =   0.0625000
        k(    3) = (   0.1250000   0.3702070   0.1251028), wk =   0.0625000
        k(    4) = (   0.1250000   0.3702070   0.3753084), wk =   0.0625000
        k(    5) = (   0.3750000   0.1234023   0.1251028), wk =   0.0625000
        k(    6) = (   0.3750000   0.1234023   0.3753084), wk =   0.0625000
        k(    7) = (   0.3750000   0.3702070   0.1251028), wk =   0.0625000
        k(    8) = (   0.3750000   0.3702070   0.3753084), wk =   0.0625000
        k(    9) = (  -0.1250000  -0.1234023   0.1251028), wk =   0.0625000
        k(   10) = (  -0.1250000   0.1234023  -0.1251028), wk =   0.0625000
        k(   11) = (   0.1250000  -0.1234023  -0.1251028), wk =   0.0625000
        k(   12) = (  -0.1250000  -0.1234023   0.3753084), wk =   0.0625000
        k(   13) = (  -0.1250000   0.1234023  -0.3753084), wk =   0.0625000
        k(   14) = (   0.1250000  -0.1234023  -0.3753084), wk =   0.0625000
        k(   15) = (  -0.1250000  -0.3702070   0.1251028), wk =   0.0625000
        k(   16) = (  -0.1250000   0.3702070  -0.1251028), wk =   0.0625000
        k(   17) = (   0.1250000  -0.3702070  -0.1251028), wk =   0.0625000
        k(   18) = (  -0.1250000  -0.3702070   0.3753084), wk =   0.0625000
        k(   19) = (  -0.1250000   0.3702070  -0.3753084), wk =   0.0625000
        k(   20) = (   0.1250000  -0.3702070  -0.3753084), wk =   0.0625000
        k(   21) = (  -0.3750000  -0.1234023   0.1251028), wk =   0.0625000
        k(   22) = (  -0.3750000   0.1234023  -0.1251028), wk =   0.0625000
        k(   23) = (   0.3750000  -0.1234023  -0.1251028), wk =   0.0625000
        k(   24) = (  -0.3750000  -0.1234023   0.3753084), wk =   0.0625000
        k(   25) = (  -0.3750000   0.1234023  -0.3753084), wk =   0.0625000
        k(   26) = (   0.3750000  -0.1234023  -0.3753084), wk =   0.0625000
        k(   27) = (  -0.3750000  -0.3702070   0.1251028), wk =   0.0625000
        k(   28) = (  -0.3750000   0.3702070  -0.1251028), wk =   0.0625000
        k(   29) = (   0.3750000  -0.3702070  -0.1251028), wk =   0.0625000
        k(   30) = (  -0.3750000  -0.3702070   0.3753084), wk =   0.0625000
        k(   31) = (  -0.3750000   0.3702070  -0.3753084), wk =   0.0625000
        k(   32) = (   0.3750000  -0.3702070  -0.3753084), wk =   0.0625000

     Dense  grid:  2487289 G-vectors     FFT dimensions: ( 180, 180, 180)

     Estimated max dynamical RAM per process >       1.82 GB

     Estimated total dynamical RAM >      58.29 GB

     Initial potential from superposition of free atoms

     starting charge  431.97851, renormalised to  432.00000
     Starting wfcs are  304 randomized atomic wfcs
     Checking if some PAW data can be deallocated... 

     total cpu time spent up to now is     1028.7 secs

     Self-consistent Calculation

     iteration #  1     ecut=   120.00 Ry     beta= 0.70
     Davidson diagonalization with overlap
     ethr =  1.00E-02,  avg # of iterations =  2.0

     total cpu time spent up to now is     3098.6 secs

     total energy              =  -16705.01877677 Ry
     Harris-Foulkes estimate   =  -16709.28321481 Ry
     estimated scf accuracy    <       6.75184180 Ry

     iteration #  2     ecut=   120.00 Ry     beta= 0.70
     Davidson diagonalization with overlap
     ethr =  1.56E-03,  avg # of iterations =  4.0

     total cpu time spent up to now is     5816.9 secs

     total energy              =  -16706.55210259 Ry
     Harris-Foulkes estimate   =  -16708.64671792 Ry
     estimated scf accuracy    <       3.90741940 Ry

     iteration #  3     ecut=   120.00 Ry     beta= 0.70
     Davidson diagonalization with overlap
     ethr =  9.04E-04,  avg # of iterations =  3.0

     total cpu time spent up to now is     7950.0 secs

     total energy              =  -16707.41852984 Ry
     Harris-Foulkes estimate   =  -16707.48599165 Ry
     estimated scf accuracy    <       0.14667730 Ry

     iteration #  4     ecut=   120.00 Ry     beta= 0.70
     Davidson diagonalization with overlap
     ethr =  3.40E-05,  avg # of iterations =  4.0

     total cpu time spent up to now is    10847.6 secs

     total energy              =  -16707.46230579 Ry
     Harris-Foulkes estimate   =  -16707.48196630 Ry
     estimated scf accuracy    <       0.03911805 Ry

     iteration #  5     ecut=   120.00 Ry     beta= 0.70
     Davidson diagonalization with overlap
     ethr =  9.06E-06,  avg # of iterations =  3.0

     total cpu time spent up to now is    13159.5 secs

     total energy              =  -16707.46975118 Ry
     Harris-Foulkes estimate   =  -16707.47099214 Ry
     estimated scf accuracy    <       0.00230517 Ry

     iteration #  6     ecut=   120.00 Ry     beta= 0.70
     Davidson diagonalization with overlap
     ethr =  5.34E-07,  avg # of iterations =  4.0

     total cpu time spent up to now is    16046.1 secs

     total energy              =  -16707.47039786 Ry
     Harris-Foulkes estimate   =  -16707.47094574 Ry
     estimated scf accuracy    <       0.00121864 Ry

     iteration #  7     ecut=   120.00 Ry     beta= 0.70
     Davidson diagonalization with overlap
     ethr =  2.82E-07,  avg # of iterations =  4.0

     total cpu time spent up to now is    18369.5 secs

     total energy              =  -16707.47065846 Ry
     Harris-Foulkes estimate   =  -16707.47069526 Ry
     estimated scf accuracy    <       0.00008416 Ry

     iteration #  8     ecut=   120.00 Ry     beta= 0.70
     Davidson diagonalization with overlap
     ethr =  1.95E-08,  avg # of iterations =  4.0

     total cpu time spent up to now is    20953.8 secs

     total energy              =  -16707.47068040 Ry
     Harris-Foulkes estimate   =  -16707.47068991 Ry
     estimated scf accuracy    <       0.00002087 Ry

     iteration #  9     ecut=   120.00 Ry     beta= 0.70
     Davidson diagonalization with overlap
     ethr =  4.83E-09,  avg # of iterations =  4.0

     total cpu time spent up to now is    23406.6 secs

     total energy              =  -16707.47068484 Ry
     Harris-Foulkes estimate   =  -16707.47068581 Ry
     estimated scf accuracy    <       0.00000205 Ry

     iteration # 10     ecut=   120.00 Ry     beta= 0.70
     Davidson diagonalization with overlap
     ethr =  4.75E-10,  avg # of iterations =  4.0

     total cpu time spent up to now is    25818.0 secs

     total energy              =  -16707.47068534 Ry
     Harris-Foulkes estimate   =  -16707.47068550 Ry
     estimated scf accuracy    <       0.00000036 Ry

     iteration # 11     ecut=   120.00 Ry     beta= 0.70
     Davidson diagonalization with overlap
     ethr =  8.26E-11,  avg # of iterations =  4.0

     total cpu time spent up to now is    28260.9 secs

     End of self-consistent calculation

          k = 0.1250 0.1234 0.1251 (310882 PWs)   bands (ev):

   -17.9408 -17.9046 -17.8949 -17.8616 -17.8482 -17.8388 -17.8369 -17.8059
   -15.7339 -15.7161 -15.6758 -15.6451 -15.6332 -15.6135 -15.6047 -15.5632
   -14.3557 -14.3489 -14.3186 -14.3165 -14.3131 -14.3097 -14.3092 -14.2981
   -14.2975 -14.2897 -14.2801 -14.2801 -14.2767 -14.2739 -14.2701 -14.2695
   -14.2683 -14.2656 -14.2651 -14.2620 -14.2600 -14.2561 -14.2552 -14.2529
   -14.2505 -14.2483 -14.2476 -14.2429 -14.2421 -14.2404 -14.2349 -14.2325
   -14.2281 -14.2229 -14.2212 -14.2195 -14.2153 -14.2142 -14.2110 -14.2105
    -9.8228  -9.7806  -9.7233  -9.7016  -9.6682  -9.6448  -9.6053  -9.5951
    -9.4910  -9.4816  -9.4199  -9.3856  -9.3500  -9.3165  -9.2977  -9.2610
    -9.2346  -9.1967  -9.1839  -9.1556  -9.1414  -9.1296  -9.1036  -9.0801
    -9.0642  -9.0405  -9.0137  -8.9990  -8.9729  -8.9707  -8.9114  -8.8699
    -7.7988  -7.7452  -7.6959  -7.6820  -7.6656  -7.6481  -7.6459  -7.6339
    -7.1021  -7.0864  -7.0670  -7.0327  -7.0320  -7.0041  -6.9961  -6.9365
    -5.8919  -5.4987  -5.4858  -5.4451  -5.4209  -5.3753  -5.3633  -5.3526
    -5.3336  -5.3127  -5.3022  -5.2926  -5.0621  -5.0113  -5.0004  -4.6140
    -3.8911  -3.8793  -3.8506  -3.8250  -3.8094  -3.8026  -3.7845  -3.7683
    -3.3296  -3.3188  -3.3059  -3.2672  -3.2641  -3.2551  -3.2405  -3.2046
    -0.8919  -0.8606  -0.8278  -0.7743  -0.7386  -0.7213  -0.6956  -0.6594
    -0.6235  -0.6075  -0.5467  -0.5053  -0.1987  -0.1757  -0.1368  -0.1206
    -0.0908  -0.0603  -0.0286   0.0007   0.3509   0.4070   0.4396   0.4633
     0.4813   0.4987   0.5204   0.5438   0.5692   0.6213   0.6651   0.7305
     0.7592   0.7835   0.8324   0.8518   0.8802   0.9060   0.9282   0.9595
     0.9769   0.9982   1.0107   1.0262   1.0399   1.0590   1.0697   1.0777
     1.0951   1.1220   1.1391   1.1636   1.1706   1.1903   1.2119   1.2289
     1.2481   1.2613   1.2790   1.2940   1.3020   1.3169   1.3461   1.3870
     1.4029   1.4299   1.4456   1.4545   1.4835   1.5025   1.5611   1.5813
     1.6383   1.6822   1.6974   1.7280   1.7730   1.8196   1.8436   2.0826

          k = 0.1250 0.1234 0.3753 (310895 PWs)   bands (ev):

   -17.9408 -17.9046 -17.8949 -17.8616 -17.8481 -17.8388 -17.8369 -17.8059
   -15.7339 -15.7161 -15.6757 -15.6451 -15.6331 -15.6137 -15.6047 -15.5632
   -14.3555 -14.3488 -14.3186 -14.3165 -14.3128 -14.3097 -14.3092 -14.2978
   -14.2974 -14.2896 -14.2801 -14.2799 -14.2770 -14.2739 -14.2703 -14.2695
   -14.2683 -14.2656 -14.2651 -14.2622 -14.2600 -14.2561 -14.2555 -14.2529
   -14.2507 -14.2484 -14.2476 -14.2429 -14.2421 -14.2404 -14.2349 -14.2325
   -14.2281 -14.2229 -14.2212 -14.2195 -14.2153 -14.2142 -14.2110 -14.2105
    -9.8044  -9.7724  -9.7256  -9.6979  -9.6743  -9.6612  -9.6296  -9.6016
    -9.4931  -9.4575  -9.4140  -9.3820  -9.3622  -9.3226  -9.3078  -9.2792
    -9.2397  -9.2132  -9.1566  -9.1440  -9.1224  -9.1085  -9.0906  -9.0763
    -9.0598  -9.0410  -9.0166  -9.0101  -8.9855  -8.9713  -8.9184  -8.8730
    -7.7988  -7.7453  -7.6948  -7.6825  -7.6638  -7.6498  -7.6469  -7.6340
    -7.1021  -7.0863  -7.0671  -7.0326  -7.0322  -7.0041  -6.9961  -6.9365
    -5.7771  -5.6028  -5.4919  -5.3884  -5.3665  -5.3623  -5.3531  -5.3397
    -5.3201  -5.3072  -5.2928  -5.2873  -5.1772  -5.1331  -4.9200  -4.7436
    -3.8896  -3.8789  -3.8496  -3.8276  -3.8098  -3.8007  -3.7861  -3.7685
    -3.3295  -3.3184  -3.3058  -3.2676  -3.2634  -3.2556  -3.2407  -3.2046
    -0.8617  -0.8167  -0.7645  -0.7167  -0.6910  -0.6508  -0.6371  -0.5677
    -0.4374  -0.3937  -0.3053  -0.2388  -0.1841  -0.1495  -0.1326  -0.1138
    -0.0761  -0.0573  -0.0407  -0.0012   0.1500   0.2185   0.2880   0.3585
     0.3971   0.4219   0.4401   0.4990   0.5087   0.5423   0.5514   0.5806
     0.6251   0.6938   0.8137   0.8227   0.8677   0.8943   0.9060   0.9430
     0.9459   0.9695   0.9923   1.0159   1.0350   1.0469   1.0799   1.0925
     1.1192   1.1299   1.1506   1.1648   1.1975   1.2051   1.2283   1.2410
     1.2551   1.2711   1.2829   1.2951   1.3208   1.3308   1.3517   1.3567
     1.3975   1.4204   1.4289   1.4513   1.4900   1.5014   1.5167   1.5426
     1.6122   1.6354   1.6507   1.6682   1.7227   1.7336   1.8095   1.9401

          k = 0.1250 0.3702 0.1251 (310795 PWs)   bands (ev):

   -17.9408 -17.9046 -17.8949 -17.8616 -17.8482 -17.8388 -17.8369 -17.8059
   -15.7339 -15.7161 -15.6758 -15.6451 -15.6332 -15.6135 -15.6047 -15.5632
   -14.3557 -14.3487 -14.3186 -14.3165 -14.3128 -14.3097 -14.3091 -14.2977
   -14.2975 -14.2900 -14.2801 -14.2801 -14.2770 -14.2739 -14.2698 -14.2695
   -14.2683 -14.2656 -14.2653 -14.2623 -14.2600 -14.2561 -14.2544 -14.2529
   -14.2510 -14.2488 -14.2476 -14.2429 -14.2423 -14.2404 -14.2349 -14.2325
   -14.2281 -14.2229 -14.2212 -14.2195 -14.2153 -14.2142 -14.2110 -14.2105
    -9.8152  -9.7879  -9.7204  -9.7023  -9.6667  -9.6458  -9.6041  -9.5989
    -9.4769  -9.4607  -9.4130  -9.4012  -9.3709  -9.3407  -9.3099  -9.2990
    -9.2346  -9.1924  -9.1689  -9.1451  -9.1273  -9.1125  -9.0850  -9.0732
    -9.0535  -9.0434  -9.0193  -8.9995  -8.9799  -8.9630  -8.9172  -8.8855
    -7.7979  -7.7446  -7.6963  -7.6783  -7.6662  -7.6504  -7.6455  -7.6350
    -7.1019  -7.0863  -7.0669  -7.0329  -7.0316  -7.0041  -6.9966  -6.9366
    -5.7773  -5.5809  -5.4927  -5.3879  -5.3725  -5.3641  -5.3560  -5.3372
    -5.3230  -5.3131  -5.2998  -5.2836  -5.1687  -5.1329  -4.9291  -4.7552
    -3.8890  -3.8794  -3.8511  -3.8242  -3.8097  -3.8033  -3.7847  -3.7685
    -3.3299  -3.3177  -3.3062  -3.2655  -3.2643  -3.2572  -3.2407  -3.2048
    -0.8833  -0.8495  -0.7287  -0.7179  -0.7015  -0.6368  -0.5910  -0.5439
    -0.4013  -0.3698  -0.3001  -0.2227  -0.1828  -0.1537  -0.1361  -0.1089
    -0.0948  -0.0714  -0.0284  -0.0046   0.1814   0.2358   0.3107   0.3478
     0.3883   0.4597   0.4758   0.4991   0.5123   0.5168   0.5328   0.6113
     0.6352   0.6894   0.7331   0.7571   0.8105   0.8522   0.9002   0.9162
     0.9478   0.9938   1.0043   1.0206   1.0395   1.0585   1.0701   1.0891
     1.1031   1.1197   1.1510   1.1713   1.1898   1.2116   1.2206   1.2519
     1.2573   1.2666   1.2857   1.3016   1.3159   1.3434   1.3612   1.3868
     1.3960   1.4165   1.4310   1.4522   1.4796   1.4951   1.5240   1.5398
     1.5639   1.5923   1.6227   1.6701   1.7024   1.7168   1.8361   1.9064

          k = 0.1250 0.3702 0.3753 (310926 PWs)   bands (ev):

   -17.9408 -17.9046 -17.8949 -17.8616 -17.8481 -17.8388 -17.8369 -17.8059
   -15.7339 -15.7161 -15.6757 -15.6451 -15.6331 -15.6137 -15.6047 -15.5632
   -14.3555 -14.3486 -14.3186 -14.3165 -14.3126 -14.3097 -14.3091 -14.2974
   -14.2973 -14.2898 -14.2801 -14.2799 -14.2774 -14.2739 -14.2700 -14.2695
   -14.2683 -14.2656 -14.2653 -14.2625 -14.2600 -14.2561 -14.2547 -14.2529
   -14.2511 -14.2489 -14.2477 -14.2429 -14.2424 -14.2404 -14.2349 -14.2325
   -14.2281 -14.2229 -14.2212 -14.2195 -14.2153 -14.2142 -14.2110 -14.2105
    -9.7990  -9.7763  -9.7233  -9.6975  -9.6714  -9.6644  -9.6301  -9.6030
    -9.4760  -9.4461  -9.4137  -9.3938  -9.3679  -9.3463  -9.3247  -9.3021
    -9.2575  -9.1745  -9.1588  -9.1282  -9.1135  -9.1063  -9.0863  -9.0728
    -9.0567  -9.0354  -9.0191  -9.0097  -8.9856  -8.9584  -8.9260  -8.8892
    -7.7980  -7.7447  -7.6951  -7.6790  -7.6642  -7.6506  -7.6484  -7.6348
    -7.1020  -7.0864  -7.0669  -7.0328  -7.0316  -7.0041  -6.9966  -6.9366
    -5.6663  -5.5125  -5.4992  -5.4440  -5.3781  -5.3682  -5.3569  -5.3435
    -5.3266  -5.3056  -5.2935  -5.2516  -5.2324  -5.0733  -5.0394  -4.8823
    -3.8879  -3.8788  -3.8497  -3.8260  -3.8111  -3.8012  -3.7862  -3.7684
    -3.3299  -3.3174  -3.3062  -3.2657  -3.2639  -3.2577  -3.2409  -3.2049
    -0.8469  -0.7266  -0.6718  -0.6057  -0.4715  -0.4363  -0.3779  -0.3569
    -0.3103  -0.2996  -0.2655  -0.2496  -0.1687  -0.1477  -0.1225  -0.1001
    -0.0846  -0.0626  -0.0368  -0.0075   0.1155   0.1978   0.2147   0.2522
     0.2964   0.3101   0.3233   0.3668   0.4321   0.5027   0.5163   0.5513
     0.5990   0.6450   0.7118   0.7309   0.7725   0.8065   0.8123   0.8389
     0.8592   0.9160   0.9397   0.9766   0.9865   1.0224   1.0400   1.0750
     1.1122   1.1294   1.1377   1.1729   1.1991   1.2202   1.2329   1.2471
     1.2775   1.2920   1.3008   1.3176   1.3352   1.3553   1.3642   1.3792
     1.3879   1.4038   1.4337   1.4467   1.4681   1.4760   1.5127   1.5357
     1.5448   1.5731   1.6037   1.6426   1.6483   1.6805   1.7073   1.7891

          k = 0.3750 0.1234 0.1251 (310926 PWs)   bands (ev):

   -17.9405 -17.9048 -17.8949 -17.8616 -17.8482 -17.8386 -17.8370 -17.8059
   -15.7288 -15.7212 -15.6758 -15.6451 -15.6332 -15.6135 -15.6048 -15.5632
   -14.3554 -14.3488 -14.3186 -14.3165 -14.3131 -14.3098 -14.3095 -14.2981
   -14.2973 -14.2897 -14.2801 -14.2794 -14.2768 -14.2739 -14.2701 -14.2695
   -14.2683 -14.2658 -14.2656 -14.2620 -14.2600 -14.2561 -14.2549 -14.2529
   -14.2499 -14.2476 -14.2474 -14.2442 -14.2429 -14.2404 -14.2349 -14.2325
   -14.2281 -14.2229 -14.2212 -14.2195 -14.2153 -14.2142 -14.2110 -14.2105
    -9.7966  -9.7582  -9.7382  -9.7185  -9.6893  -9.6443  -9.6075  -9.6036
    -9.5033  -9.4732  -9.4119  -9.3748  -9.3593  -9.3320  -9.2898  -9.2640
    -9.2264  -9.2030  -9.1811  -9.1572  -9.1448  -9.1270  -9.1157  -9.0772
    -9.0380  -9.0246  -9.0086  -8.9952  -8.9744  -8.9554  -8.9276  -8.8919
    -7.7943  -7.7516  -7.6957  -7.6818  -7.6657  -7.6489  -7.6465  -7.6340
    -7.1011  -7.0864  -7.0668  -7.0326  -7.0318  -7.0046  -6.9954  -6.9366
    -5.7750  -5.5974  -5.4661  -5.4030  -5.3767  -5.3673  -5.3510  -5.3334
    -5.3178  -5.3108  -5.2920  -5.2878  -5.1837  -5.1377  -4.9136  -4.7490
    -3.8923  -3.8780  -3.8504  -3.8247  -3.8082  -3.8041  -3.7852  -3.7686
    -3.3279  -3.3197  -3.3051  -3.2656  -3.2637  -3.2526  -3.2452  -3.2066
    -0.8587  -0.8160  -0.7821  -0.7587  -0.7140  -0.6593  -0.6490  -0.6073
    -0.4458  -0.3429  -0.2687  -0.2174  -0.1685  -0.1462  -0.1221  -0.1079
    -0.0784  -0.0453  -0.0314  -0.0076   0.1141   0.2254   0.3182   0.3812
     0.4166   0.4505   0.4584   0.5014   0.5177   0.5416   0.5611   0.6111
     0.6616   0.6875   0.7823   0.8169   0.8349   0.8593   0.9072   0.9284
     0.9483   0.9745   0.9935   1.0121   1.0293   1.0564   1.0635   1.0838
     1.1009   1.1324   1.1408   1.1768   1.1901   1.2058   1.2200   1.2435
     1.2498   1.2745   1.2852   1.3021   1.3184   1.3389   1.3675   1.3852
     1.4213   1.4305   1.4502   1.4711   1.4844   1.4990   1.5440   1.5673
     1.5968   1.6070   1.6242   1.6492   1.6763   1.7083   1.8083   1.8884

          k = 0.3750 0.1234 0.3753 (310913 PWs)   bands (ev):

   -17.9405 -17.9048 -17.8949 -17.8616 -17.8481 -17.8387 -17.8370 -17.8059
   -15.7288 -15.7212 -15.6757 -15.6451 -15.6331 -15.6136 -15.6048 -15.5632
   -14.3553 -14.3487 -14.3186 -14.3165 -14.3128 -14.3097 -14.3095 -14.2978
   -14.2971 -14.2896 -14.2801 -14.2791 -14.2772 -14.2739 -14.2703 -14.2695
   -14.2683 -14.2658 -14.2656 -14.2622 -14.2600 -14.2561 -14.2552 -14.2529
   -14.2501 -14.2477 -14.2475 -14.2443 -14.2429 -14.2404 -14.2349 -14.2325
   -14.2281 -14.2229 -14.2212 -14.2195 -14.2153 -14.2142 -14.2110 -14.2105
    -9.7806  -9.7520  -9.7263  -9.7121  -9.6933  -9.6684  -9.6373  -9.6098
    -9.4821  -9.4610  -9.4240  -9.3969  -9.3498  -9.3282  -9.3069  -9.2858
    -9.2260  -9.2129  -9.1527  -9.1490  -9.1199  -9.1136  -9.0954  -9.0758
    -9.0447  -9.0329  -9.0134  -8.9921  -8.9805  -8.9599  -8.9311  -8.8981
    -7.7941  -7.7516  -7.6943  -7.6825  -7.6628  -7.6509  -7.6485  -7.6348
    -7.1011  -7.0863  -7.0667  -7.0326  -7.0318  -7.0047  -6.9954  -6.9366
    -5.6640  -5.5089  -5.4823  -5.4585  -5.4016  -5.3657  -5.3544  -5.3407
    -5.3159  -5.3096  -5.2960  -5.2838  -5.2096  -5.0625  -5.0301  -4.8783
    -3.8911  -3.8772  -3.8495  -3.8270  -3.8073  -3.8037  -3.7870  -3.7687
    -3.3279  -3.3196  -3.3049  -3.2650  -3.2638  -3.2528  -3.2452  -3.2064
    -0.7966  -0.7804  -0.7123  -0.6829  -0.5142  -0.4619  -0.4189  -0.3550
    -0.3400  -0.2786  -0.2542  -0.2003  -0.1638  -0.1423  -0.1190  -0.0948
    -0.0688  -0.0576  -0.0270  -0.0111   0.0880   0.1848   0.2187   0.2526
     0.2999   0.3139   0.3536   0.4064   0.4389   0.4650   0.5052   0.5210
     0.6392   0.7002   0.7391   0.7603   0.8013   0.8173   0.8378   0.8651
     0.9130   0.9296   0.9490   0.9686   0.9931   1.0275   1.0445   1.0670
     1.0970   1.1143   1.1425   1.1673   1.1813   1.2081   1.2257   1.2515
     1.2707   1.2772   1.3081   1.3129   1.3288   1.3408   1.3558   1.3799
     1.3954   1.4158   1.4343   1.4616   1.4718   1.4933   1.5137   1.5456
     1.5550   1.5749   1.6088   1.6412   1.6518   1.6830   1.7215   1.7608

          k = 0.3750 0.3702 0.1251 (310890 PWs)   bands (ev):

   -17.9405 -17.9048 -17.8949 -17.8616 -17.8482 -17.8386 -17.8370 -17.8059
   -15.7288 -15.7212 -15.6758 -15.6450 -15.6332 -15.6135 -15.6048 -15.5632
   -14.3554 -14.3485 -14.3186 -14.3165 -14.3128 -14.3097 -14.3094 -14.2977
   -14.2972 -14.2899 -14.2801 -14.2794 -14.2771 -14.2739 -14.2697 -14.2695
   -14.2683 -14.2660 -14.2656 -14.2623 -14.2600 -14.2561 -14.2543 -14.2529
   -14.2497 -14.2486 -14.2476 -14.2444 -14.2429 -14.2404 -14.2349 -14.2325
   -14.2281 -14.2229 -14.2212 -14.2195 -14.2153 -14.2142 -14.2110 -14.2105
    -9.7925  -9.7619  -9.7355  -9.7177  -9.6889  -9.6457  -9.6079  -9.6021
    -9.4867  -9.4620  -9.4179  -9.3980  -9.3646  -9.3502  -9.2989  -9.2858
    -9.2294  -9.2034  -9.1666  -9.1461  -9.1376  -9.1165  -9.0943  -9.0738
    -9.0431  -9.0187  -9.0080  -8.9920  -8.9739  -8.9528  -8.9359  -8.9052
    -7.7937  -7.7508  -7.6960  -7.6785  -7.6661  -7.6514  -7.6457  -7.6351
    -7.1010  -7.0862  -7.0667  -7.0328  -7.0313  -7.0046  -6.9961  -6.9366
    -5.6647  -5.5002  -5.4712  -5.4569  -5.4030  -5.3746  -5.3529  -5.3378
    -5.3172  -5.3076  -5.2949  -5.2621  -5.2267  -5.0731  -5.0417  -4.8883
    -3.8908  -3.8780  -3.8504  -3.8242  -3.8080  -3.8052  -3.7849  -3.7687
    -3.3282  -3.3193  -3.3048  -3.2659  -3.2632  -3.2533  -3.2455  -3.2068
    -0.8501  -0.7369  -0.6907  -0.6324  -0.5525  -0.4545  -0.4079  -0.3604
    -0.3030  -0.2585  -0.2253  -0.1885  -0.1523  -0.1230  -0.1092  -0.0999
    -0.0830  -0.0513  -0.0373  -0.0140   0.0419   0.1792   0.2162   0.2326
     0.3179   0.3441   0.4087   0.4336   0.4667   0.4780   0.5128   0.5399
     0.5830   0.6674   0.6863   0.7125   0.7749   0.8047   0.8454   0.8677
     0.9002   0.9201   0.9502   0.9708   1.0057   1.0299   1.0571   1.0807
     1.0886   1.1076   1.1230   1.1460   1.1632   1.2038   1.2200   1.2409
     1.2656   1.2763   1.2992   1.3054   1.3282   1.3479   1.3606   1.3833
     1.4025   1.4336   1.4459   1.4629   1.4828   1.5003   1.5182   1.5359
     1.5633   1.5750   1.6036   1.6194   1.6282   1.6501   1.6771   1.7101

          k = 0.3750 0.3702 0.3753 (310927 PWs)   bands (ev):

   -17.9405 -17.9048 -17.8949 -17.8616 -17.8481 -17.8387 -17.8370 -17.8059
   -15.7288 -15.7212 -15.6757 -15.6450 -15.6331 -15.6136 -15.6048 -15.5632
   -14.3553 -14.3485 -14.3186 -14.3165 -14.3126 -14.3097 -14.3094 -14.2974
   -14.2970 -14.2898 -14.2801 -14.2791 -14.2775 -14.2739 -14.2699 -14.2695
   -14.2683 -14.2660 -14.2656 -14.2625 -14.2600 -14.2561 -14.2546 -14.2529
   -14.2498 -14.2487 -14.2477 -14.2445 -14.2429 -14.2404 -14.2349 -14.2325
   -14.2281 -14.2229 -14.2212 -14.2195 -14.2153 -14.2142 -14.2110 -14.2105
    -9.7774  -9.7530  -9.7260  -9.7108  -9.6938  -9.6688  -9.6366  -9.6081
    -9.4626  -9.4568  -9.4136  -9.3949  -9.3833  -9.3545  -9.3361  -9.2938
    -9.2333  -9.1753  -9.1530  -9.1344  -9.1175  -9.1067  -9.0893  -9.0782
    -9.0467  -9.0218  -9.0089  -8.9930  -8.9769  -8.9594  -8.9379  -8.9108
    -7.7934  -7.7509  -7.6947  -7.6793  -7.6630  -7.6524  -7.6489  -7.6355
    -7.1011  -7.0863  -7.0666  -7.0327  -7.0314  -7.0046  -6.9960  -6.9366
    -5.5577  -5.4700  -5.4216  -5.4018  -5.3832  -5.3690  -5.3509  -5.3338
    -5.3273  -5.3108  -5.2992  -5.2869  -5.2149  -5.1719  -5.1577  -5.0141
    -3.8896  -3.8774  -3.8492  -3.8260  -3.8075  -3.8048  -3.7866  -3.7686
    -3.3282  -3.3193  -3.3048  -3.2655  -3.2632  -3.2534  -3.2456  -3.2067
    -0.5749  -0.5138  -0.4689  -0.4294  -0.4055  -0.3630  -0.3329  -0.3114
    -0.2987  -0.2476  -0.2291  -0.1885  -0.1499  -0.1385  -0.1142  -0.0887
    -0.0756  -0.0573  -0.0320  -0.0139   0.0407   0.1525   0.1706   0.1883
     0.2379   0.2630   0.2752   0.3043   0.3338   0.3752   0.4188   0.4738
     0.6208   0.6918   0.7152   0.7464   0.7815   0.7892   0.8138   0.8340
     0.8627   0.8748   0.8877   0.9115   0.9500   0.9677   0.9990   1.0087
     1.0463   1.0500   1.0817   1.0878   1.1009   1.1332   1.1458   1.1626
     1.2647   1.2828   1.3196   1.3313   1.3422   1.3594   1.3717   1.3840
     1.3960   1.4185   1.4366   1.4535   1.4637   1.4888   1.5130   1.5294
     1.5345   1.5574   1.5779   1.5897   1.6088   1.6285   1.6559   1.6655

          k =-0.1250-0.1234 0.1251 (310882 PWs)   bands (ev):

   -17.9408 -17.9046 -17.8949 -17.8616 -17.8482 -17.8388 -17.8369 -17.8059
   -15.7339 -15.7161 -15.6758 -15.6451 -15.6332 -15.6135 -15.6047 -15.5632
   -14.3557 -14.3489 -14.3186 -14.3165 -14.3131 -14.3097 -14.3092 -14.2981
   -14.2975 -14.2897 -14.2801 -14.2801 -14.2767 -14.2739 -14.2701 -14.2695
   -14.2683 -14.2656 -14.2651 -14.2620 -14.2600 -14.2561 -14.2552 -14.2529
   -14.2505 -14.2483 -14.2476 -14.2429 -14.2421 -14.2404 -14.2349 -14.2325
   -14.2281 -14.2229 -14.2212 -14.2195 -14.2153 -14.2142 -14.2110 -14.2105
    -9.8222  -9.7811  -9.7230  -9.7013  -9.6668  -9.6463  -9.6060  -9.5964
    -9.4995  -9.4741  -9.4166  -9.3826  -9.3448  -9.3266  -9.2969  -9.2556
    -9.2395  -9.1992  -9.1749  -9.1647  -9.1420  -9.1271  -9.1045  -9.0789
    -9.0652  -9.0393  -9.0128  -9.0004  -8.9752  -8.9685  -8.9117  -8.8690
    -7.7988  -7.7453  -7.6959  -7.6822  -7.6654  -7.6483  -7.6457  -7.6337
    -7.1021  -7.0864  -7.0671  -7.0327  -7.0320  -7.0041  -6.9961  -6.9365
    -5.8919  -5.4965  -5.4871  -5.4440  -5.4245  -5.3759  -5.3640  -5.3520
    -5.3348  -5.3112  -5.3022  -5.2901  -5.0619  -5.0108  -5.0012  -4.6142
    -3.8912  -3.8791  -3.8503  -3.8253  -3.8097  -3.8020  -3.7846  -3.7683
    -3.3297  -3.3191  -3.3059  -3.2670  -3.2640  -3.2551  -3.2405  -3.2046
    -0.9026  -0.8631  -0.8157  -0.7678  -0.7446  -0.7143  -0.6949  -0.6621
    -0.6241  -0.6095  -0.5487  -0.5057  -0.1974  -0.1690  -0.1345  -0.1265
    -0.0903  -0.0633  -0.0288   0.0014   0.3526   0.4113   0.4433   0.4632
     0.4845   0.4936   0.5128   0.5528   0.5694   0.6184   0.6547   0.7345
     0.7500   0.7946   0.8131   0.8511   0.8673   0.9098   0.9305   0.9565
     0.9747   0.9944   1.0124   1.0238   1.0376   1.0527   1.0753   1.0941
     1.1123   1.1216   1.1464   1.1597   1.1749   1.1972   1.2201   1.2285
     1.2418   1.2611   1.2805   1.2864   1.3023   1.3178   1.3499   1.3758
     1.4097   1.4249   1.4315   1.4628   1.4855   1.5080   1.5622   1.5784
     1.6421   1.6788   1.6984   1.7238   1.7748   1.8143   1.8469   2.0835

          k =-0.1250 0.1234-0.1251 (310882 PWs)   bands (ev):

   -17.9408 -17.9046 -17.8949 -17.8616 -17.8482 -17.8388 -17.8369 -17.8059
   -15.7339 -15.7161 -15.6758 -15.6451 -15.6332 -15.6135 -15.6047 -15.5632
   -14.3557 -14.3489 -14.3186 -14.3165 -14.3131 -14.3097 -14.3092 -14.2981
   -14.2975 -14.2897 -14.2801 -14.2801 -14.2767 -14.2739 -14.2701 -14.2695
   -14.2683 -14.2656 -14.2651 -14.2620 -14.2600 -14.2561 -14.2552 -14.2529
   -14.2505 -14.2483 -14.2476 -14.2429 -14.2421 -14.2404 -14.2349 -14.2325
   -14.2281 -14.2229 -14.2212 -14.2195 -14.2153 -14.2142 -14.2110 -14.2105
    -9.8229  -9.7806  -9.7242  -9.7004  -9.6668  -9.6455  -9.6052  -9.5970
    -9.4922  -9.4771  -9.4231  -9.3873  -9.3486  -9.3145  -9.2950  -9.2590
    -9.2371  -9.2075  -9.1781  -9.1611  -9.1323  -9.1272  -9.1085  -9.0789
    -9.0664  -9.0384  -9.0172  -8.9929  -8.9793  -8.9674  -8.9115  -8.8695
    -7.7987  -7.7453  -7.6959  -7.6820  -7.6653  -7.6487  -7.6456  -7.6340
    -7.1020  -7.0865  -7.0670  -7.0326  -7.0320  -7.0041  -6.9961  -6.9366
    -5.8918  -5.5006  -5.4839  -5.4471  -5.4251  -5.3750  -5.3607  -5.3525
    -5.3347  -5.3110  -5.3001  -5.2900  -5.0630  -5.0104  -5.0020  -4.6149
    -3.8909  -3.8792  -3.8507  -3.8248  -3.8099  -3.8021  -3.7847  -3.7682
    -3.3295  -3.3190  -3.3057  -3.2677  -3.2639  -3.2547  -3.2405  -3.2046
    -0.8865  -0.8564  -0.8135  -0.7731  -0.7368  -0.7185  -0.7035  -0.6721
    -0.6302  -0.6127  -0.5493  -0.5083  -0.1987  -0.1781  -0.1329  -0.1271
    -0.0898  -0.0588  -0.0255  -0.0007   0.3512   0.4186   0.4395   0.4657
     0.4832   0.5000   0.5194   0.5541   0.5717   0.6178   0.6652   0.7165
     0.7419   0.7969   0.8274   0.8543   0.8985   0.9158   0.9353   0.9418
     0.9735   0.9788   0.9981   1.0237   1.0334   1.0523   1.0730   1.0902
     1.1132   1.1200   1.1461   1.1676   1.1772   1.1979   1.2178   1.2367
     1.2428   1.2586   1.2668   1.2822   1.3001   1.3109   1.3420   1.3883
     1.4076   1.4284   1.4466   1.4620   1.4880   1.5079   1.5640   1.5761
     1.6477   1.6859   1.6989   1.7430   1.7561   1.8073   1.8409   2.0660

          k = 0.1250-0.1234-0.1251 (310882 PWs)   bands (ev):

   -17.9408 -17.9046 -17.8949 -17.8616 -17.8482 -17.8388 -17.8369 -17.8059
   -15.7339 -15.7161 -15.6758 -15.6451 -15.6332 -15.6135 -15.6047 -15.5632
   -14.3557 -14.3489 -14.3186 -14.3165 -14.3131 -14.3097 -14.3092 -14.2981
   -14.2975 -14.2897 -14.2801 -14.2801 -14.2767 -14.2739 -14.2701 -14.2695
   -14.2683 -14.2656 -14.2651 -14.2620 -14.2600 -14.2561 -14.2552 -14.2529
   -14.2505 -14.2483 -14.2476 -14.2429 -14.2421 -14.2404 -14.2349 -14.2325
   -14.2281 -14.2229 -14.2212 -14.2195 -14.2153 -14.2142 -14.2110 -14.2105
    -9.8225  -9.7799  -9.7254  -9.7000  -9.6673  -9.6448  -9.6058  -9.5987
    -9.4993  -9.4681  -9.4197  -9.3874  -9.3445  -9.3239  -9.2886  -9.2631
    -9.2398  -9.2056  -9.1807  -9.1529  -9.1384  -9.1301  -9.1043  -9.0830
    -9.0650  -9.0359  -9.0160  -8.9942  -8.9775  -8.9692  -8.9115  -8.8696
    -7.7988  -7.7454  -7.6960  -7.6819  -7.6657  -7.6477  -7.6463  -7.6337
    -7.1020  -7.0864  -7.0671  -7.0327  -7.0320  -7.0041  -6.9961  -6.9366
    -5.8921  -5.4999  -5.4860  -5.4460  -5.4220  -5.3745  -5.3615  -5.3532
    -5.3323  -5.3128  -5.3016  -5.2917  -5.0615  -5.0121  -5.0006  -4.6149
    -3.8910  -3.8789  -3.8510  -3.8248  -3.8096  -3.8022  -3.7848  -3.7681
    -3.3296  -3.3193  -3.3058  -3.2674  -3.2641  -3.2546  -3.2405  -3.2045
    -0.8995  -0.8366  -0.8190  -0.7754  -0.7414  -0.7160  -0.7040  -0.6685
    -0.6293  -0.6129  -0.5489  -0.5076  -0.2011  -0.1775  -0.1379  -0.1227
    -0.0908  -0.0577  -0.0260  -0.0006   0.3514   0.4180   0.4379   0.4672
     0.4856   0.4971   0.5179   0.5500   0.5696   0.6315   0.6729   0.7250
     0.7553   0.7765   0.8178   0.8485   0.8885   0.9140   0.9401   0.9452
     0.9624   0.9869   0.9943   1.0107   1.0426   1.0599   1.0801   1.0873
     1.1061   1.1339   1.1514   1.1614   1.1828   1.1919   1.2085   1.2364
     1.2465   1.2639   1.2706   1.2825   1.2990   1.3185   1.3402   1.3813
     1.4157   1.4337   1.4397   1.4604   1.4806   1.5116   1.5593   1.5764
     1.6512   1.6799   1.6988   1.7435   1.7550   1.8099   1.8391   2.0693

          k =-0.1250-0.1234 0.3753 (310895 PWs)   bands (ev):

   -17.9408 -17.9046 -17.8949 -17.8616 -17.8481 -17.8388 -17.8369 -17.8059
   -15.7339 -15.7161 -15.6757 -15.6451 -15.6331 -15.6137 -15.6047 -15.5632
   -14.3555 -14.3488 -14.3186 -14.3165 -14.3128 -14.3097 -14.3092 -14.2978
   -14.2974 -14.2896 -14.2801 -14.2799 -14.2770 -14.2739 -14.2703 -14.2695
   -14.2683 -14.2656 -14.2651 -14.2622 -14.2600 -14.2561 -14.2555 -14.2529
   -14.2507 -14.2484 -14.2476 -14.2429 -14.2421 -14.2404 -14.2349 -14.2325
   -14.2281 -14.2229 -14.2212 -14.2195 -14.2153 -14.2142 -14.2110 -14.2105
    -9.8033  -9.7737  -9.7254  -9.6966  -9.6708  -9.6649  -9.6314  -9.6024
    -9.4993  -9.4479  -9.4142  -9.3823  -9.3573  -9.3284  -9.3095  -9.2748
    -9.2425  -9.2110  -9.1644  -9.1429  -9.1185  -9.1098  -9.0895  -9.0723
    -9.0622  -9.0410  -9.0203  -9.0080  -8.9885  -8.9685  -8.9189  -8.8721
    -7.7989  -7.7454  -7.6947  -7.6827  -7.6636  -7.6500  -7.6468  -7.6337
    -7.1021  -7.0864  -7.0671  -7.0326  -7.0321  -7.0041  -6.9961  -6.9365
    -5.7772  -5.6021  -5.4925  -5.3873  -5.3682  -5.3646  -5.3475  -5.3423
    -5.3299  -5.3061  -5.2951  -5.2749  -5.1754  -5.1362  -4.9195  -4.7441
    -3.8899  -3.8786  -3.8493  -3.8279  -3.8101  -3.8002  -3.7863  -3.7685
    -3.3296  -3.3187  -3.3058  -3.2674  -3.2633  -3.2556  -3.2408  -3.2046
    -0.8641  -0.8184  -0.7624  -0.7172  -0.6859  -0.6595  -0.6307  -0.5712
    -0.4394  -0.3817  -0.3132  -0.2364  -0.1721  -0.1460  -0.1399  -0.1122
    -0.0783  -0.0632  -0.0383   0.0047   0.1380   0.2217   0.2785   0.3600
     0.4033   0.4286   0.4427   0.4872   0.5069   0.5481   0.5586   0.5827
     0.6218   0.6743   0.8062   0.8215   0.8560   0.8960   0.9199   0.9328
     0.9596   0.9680   0.9924   1.0084   1.0438   1.0576   1.0795   1.0910
     1.1255   1.1307   1.1581   1.1713   1.1949   1.2055   1.2298   1.2411
     1.2565   1.2659   1.2786   1.2891   1.3179   1.3322   1.3490   1.3680
     1.3920   1.4149   1.4242   1.4569   1.4872   1.5079   1.5213   1.5401
     1.6171   1.6317   1.6474   1.6626   1.7191   1.7410   1.8084   1.9409

          k =-0.1250 0.1234-0.3753 (310895 PWs)   bands (ev):

   -17.9408 -17.9046 -17.8949 -17.8616 -17.8481 -17.8388 -17.8369 -17.8059
   -15.7339 -15.7161 -15.6757 -15.6451 -15.6331 -15.6137 -15.6047 -15.5632
   -14.3555 -14.3488 -14.3186 -14.3165 -14.3128 -14.3097 -14.3092 -14.2978
   -14.2974 -14.2896 -14.2801 -14.2799 -14.2770 -14.2739 -14.2703 -14.2695
   -14.2683 -14.2656 -14.2651 -14.2622 -14.2600 -14.2561 -14.2555 -14.2529
   -14.2507 -14.2484 -14.2476 -14.2429 -14.2421 -14.2404 -14.2349 -14.2325
   -14.2281 -14.2229 -14.2212 -14.2195 -14.2153 -14.2142 -14.2110 -14.2105
    -9.8039  -9.7734  -9.7248  -9.6983  -9.6735  -9.6616  -9.6295  -9.6041
    -9.4888  -9.4565  -9.4182  -9.3801  -9.3594  -9.3274  -9.3068  -9.2761
    -9.2435  -9.2150  -9.1605  -9.1411  -9.1125  -9.1109  -9.0965  -9.0721
    -9.0614  -9.0418  -9.0162  -9.0105  -8.9862  -8.9710  -8.9183  -8.8725
    -7.7988  -7.7453  -7.6947  -7.6826  -7.6632  -7.6505  -7.6468  -7.6341
    -7.1020  -7.0864  -7.0671  -7.0327  -7.0321  -7.0041  -6.9960  -6.9365
    -5.7769  -5.6033  -5.4921  -5.3914  -5.3718  -5.3623  -5.3488  -5.3369
    -5.3292  -5.3047  -5.2912  -5.2769  -5.1788  -5.1339  -4.9205  -4.7447
    -3.8896  -3.8787  -3.8495  -3.8275  -3.8105  -3.8002  -3.7863  -3.7685
    -3.3294  -3.3187  -3.3056  -3.2682  -3.2632  -3.2552  -3.2408  -3.2046
    -0.8430  -0.8024  -0.7747  -0.7258  -0.6928  -0.6562  -0.6412  -0.5749
    -0.4438  -0.3889  -0.3115  -0.2367  -0.1794  -0.1504  -0.1376  -0.1116
    -0.0730  -0.0556  -0.0416   0.0009   0.1403   0.2270   0.2808   0.3618
     0.4066   0.4274   0.4410   0.4933   0.5106   0.5446   0.5568   0.5771
     0.6357   0.6737   0.8061   0.8271   0.8681   0.8916   0.9156   0.9310
     0.9619   0.9780   1.0034   1.0126   1.0349   1.0467   1.0725   1.0829
     1.1075   1.1271   1.1606   1.1716   1.1987   1.2173   1.2260   1.2315
     1.2567   1.2635   1.2777   1.2872   1.3185   1.3229   1.3423   1.3743
     1.3961   1.4168   1.4364   1.4565   1.4925   1.5053   1.5294   1.5447
     1.6242   1.6407   1.6465   1.6720   1.7191   1.7469   1.7874   1.9107

          k = 0.1250-0.1234-0.3753 (310895 PWs)   bands (ev):

   -17.9408 -17.9046 -17.8949 -17.8616 -17.8481 -17.8388 -17.8369 -17.8059
   -15.7339 -15.7161 -15.6757 -15.6451 -15.6331 -15.6137 -15.6047 -15.5632
   -14.3555 -14.3488 -14.3186 -14.3165 -14.3128 -14.3097 -14.3092 -14.2978
   -14.2974 -14.2896 -14.2801 -14.2799 -14.2770 -14.2739 -14.2703 -14.2695
   -14.2683 -14.2656 -14.2651 -14.2622 -14.2600 -14.2561 -14.2555 -14.2529
   -14.2507 -14.2484 -14.2476 -14.2429 -14.2421 -14.2404 -14.2349 -14.2325
   -14.2281 -14.2229 -14.2212 -14.2195 -14.2153 -14.2142 -14.2110 -14.2105
    -9.8032  -9.7725  -9.7272  -9.6971  -9.6724  -9.6625  -9.6313  -9.6045
    -9.4964  -9.4420  -9.4139  -9.3859  -9.3603  -9.3371  -9.2953  -9.2722
    -9.2565  -9.2107  -9.1599  -9.1375  -9.1231  -9.1085  -9.0955  -9.0725
    -9.0604  -9.0385  -9.0169  -9.0091  -8.9880  -8.9706  -8.9185  -8.8725
    -7.7989  -7.7454  -7.6948  -7.6825  -7.6637  -7.6495  -7.6474  -7.6338
    -7.1020  -7.0864  -7.0671  -7.0327  -7.0320  -7.0041  -6.9961  -6.9365
    -5.7776  -5.6024  -5.4924  -5.3888  -5.3692  -5.3602  -5.3481  -5.3404
    -5.3259  -5.3076  -5.2959  -5.2815  -5.1733  -5.1347  -4.9205  -4.7447
    -3.8897  -3.8784  -3.8498  -3.8274  -3.8102  -3.8003  -3.7864  -3.7684
    -3.3295  -3.3190  -3.3057  -3.2679  -3.2634  -3.2550  -3.2407  -3.2044
    -0.8445  -0.8024  -0.7720  -0.7277  -0.6946  -0.6614  -0.6389  -0.5753
    -0.4332  -0.3882  -0.3094  -0.2368  -0.1777  -0.1562  -0.1397  -0.1113
    -0.0777  -0.0584  -0.0372   0.0011   0.1436   0.2138   0.2884   0.3623
     0.4070   0.4315   0.4429   0.4963   0.5121   0.5430   0.5566   0.5830
     0.6280   0.6741   0.7999   0.8148   0.8707   0.9033   0.9126   0.9303
     0.9597   0.9785   0.9927   1.0089   1.0281   1.0629   1.0805   1.0946
     1.1060   1.1296   1.1553   1.1723   1.1971   1.2133   1.2158   1.2280
     1.2562   1.2629   1.2861   1.3029   1.3166   1.3315   1.3371   1.3737
     1.3942   1.4198   1.4331   1.4546   1.4913   1.5022   1.5264   1.5456
     1.6182   1.6369   1.6483   1.6726   1.7245   1.7457   1.7869   1.9133

          k =-0.1250-0.3702 0.1251 (310795 PWs)   bands (ev):

   -17.9408 -17.9046 -17.8949 -17.8616 -17.8482 -17.8388 -17.8369 -17.8059
   -15.7339 -15.7161 -15.6758 -15.6451 -15.6332 -15.6135 -15.6047 -15.5632
   -14.3557 -14.3487 -14.3186 -14.3165 -14.3128 -14.3097 -14.3091 -14.2977
   -14.2975 -14.2900 -14.2801 -14.2801 -14.2770 -14.2739 -14.2698 -14.2695
   -14.2683 -14.2656 -14.2653 -14.2623 -14.2600 -14.2561 -14.2544 -14.2529
   -14.2510 -14.2488 -14.2476 -14.2429 -14.2423 -14.2404 -14.2349 -14.2325
   -14.2281 -14.2229 -14.2212 -14.2195 -14.2153 -14.2142 -14.2110 -14.2105
    -9.8150  -9.7879  -9.7187  -9.7031  -9.6671  -9.6469  -9.6051  -9.5977
    -9.4839  -9.4592  -9.4115  -9.3951  -9.3740  -9.3349  -9.3124  -9.2936
    -9.2371  -9.1982  -9.1730  -9.1456  -9.1286  -9.1043  -9.0866  -9.0705
    -9.0570  -9.0432  -9.0184  -8.9989  -8.9812  -8.9634  -8.9177  -8.8840
    -7.7980  -7.7448  -7.6962  -7.6786  -7.6659  -7.6507  -7.6453  -7.6347
    -7.1019  -7.0864  -7.0670  -7.0329  -7.0315  -7.0041  -6.9966  -6.9366
    -5.7771  -5.5815  -5.4923  -5.3848  -5.3753  -5.3676  -5.3587  -5.3365
    -5.3273  -5.3114  -5.2968  -5.2761  -5.1688  -5.1354  -4.9288  -4.7556
    -3.8891  -3.8794  -3.8508  -3.8244  -3.8106  -3.8023  -3.7848  -3.7685
    -3.3300  -3.3179  -3.3062  -3.2652  -3.2643  -3.2572  -3.2407  -3.2048
    -0.8944  -0.8398  -0.7427  -0.7042  -0.6944  -0.6386  -0.5884  -0.5479
    -0.4012  -0.3739  -0.3011  -0.2255  -0.1773  -0.1435  -0.1333  -0.1153
    -0.0930  -0.0758  -0.0273  -0.0057   0.1809   0.2356   0.3112   0.3574
     0.3773   0.4576   0.4810   0.5011   0.5049   0.5151   0.5405   0.6058
     0.6393   0.6717   0.7310   0.7630   0.8160   0.8444   0.8938   0.9261
     0.9483   0.9896   1.0028   1.0284   1.0384   1.0468   1.0635   1.0890
     1.1087   1.1338   1.1602   1.1704   1.1883   1.2128   1.2273   1.2321
     1.2696   1.2776   1.2872   1.3010   1.3141   1.3275   1.3655   1.3912
     1.3997   1.4102   1.4354   1.4501   1.4834   1.5011   1.5084   1.5362
     1.5784   1.5886   1.6237   1.6732   1.6944   1.7140   1.8362   1.9083

          k =-0.1250 0.3702-0.1251 (310795 PWs)   bands (ev):

   -17.9408 -17.9046 -17.8949 -17.8616 -17.8482 -17.8388 -17.8369 -17.8059
   -15.7339 -15.7161 -15.6758 -15.6451 -15.6332 -15.6135 -15.6047 -15.5632
   -14.3557 -14.3487 -14.3186 -14.3165 -14.3128 -14.3097 -14.3091 -14.2977
   -14.2975 -14.2900 -14.2801 -14.2801 -14.2770 -14.2739 -14.2698 -14.2695
   -14.2683 -14.2656 -14.2653 -14.2623 -14.2600 -14.2561 -14.2544 -14.2529
   -14.2510 -14.2488 -14.2476 -14.2429 -14.2423 -14.2404 -14.2349 -14.2325
   -14.2281 -14.2229 -14.2212 -14.2195 -14.2153 -14.2142 -14.2110 -14.2105
    -9.8154  -9.7878  -9.7216  -9.7007  -9.6655  -9.6465  -9.6040  -9.6008
    -9.4745  -9.4583  -9.4221  -9.3949  -9.3763  -9.3309  -9.3197  -9.2912
    -9.2338  -9.1955  -9.1739  -9.1467  -9.1309  -9.0974  -9.0870  -9.0760
    -9.0574  -9.0408  -9.0197  -8.9987  -8.9791  -8.9646  -8.9173  -8.8848
    -7.7979  -7.7447  -7.6963  -7.6783  -7.6659  -7.6509  -7.6454  -7.6350
    -7.1018  -7.0865  -7.0669  -7.0329  -7.0315  -7.0041  -6.9965  -6.9367
    -5.7768  -5.5825  -5.4922  -5.3895  -5.3770  -5.3676  -5.3564  -5.3376
    -5.3264  -5.3089  -5.2934  -5.2724  -5.1707  -5.1377  -4.9282  -4.7567
    -3.8889  -3.8793  -3.8511  -3.8242  -3.8103  -3.8028  -3.7849  -3.7684
    -3.3299  -3.3179  -3.3060  -3.2661  -3.2642  -3.2566  -3.2407  -3.2049
    -0.8815  -0.8474  -0.7270  -0.7124  -0.6947  -0.6362  -0.5851  -0.5444
    -0.4103  -0.3880  -0.3125  -0.2344  -0.1788  -0.1559  -0.1381  -0.1154
    -0.0935  -0.0732  -0.0281  -0.0030   0.1944   0.2552   0.3218   0.3616
     0.3974   0.4603   0.4753   0.4897   0.5096   0.5149   0.5396   0.6026
     0.6278   0.6822   0.7258   0.7619   0.8213   0.8394   0.9015   0.9173
     0.9512   0.9815   0.9917   1.0102   1.0429   1.0673   1.0764   1.0951
     1.1158   1.1209   1.1645   1.1733   1.1907   1.2043   1.2239   1.2463
     1.2537   1.2607   1.2794   1.3053   1.3207   1.3297   1.3678   1.3871
     1.4069   1.4158   1.4269   1.4535   1.4793   1.4980   1.5139   1.5501
     1.5629   1.5967   1.6201   1.6766   1.6925   1.7174   1.8402   1.8890

          k = 0.1250-0.3702-0.1251 (310795 PWs)   bands (ev):

   -17.9408 -17.9046 -17.8949 -17.8616 -17.8482 -17.8388 -17.8369 -17.8059
   -15.7339 -15.7161 -15.6758 -15.6451 -15.6332 -15.6135 -15.6047 -15.5632
   -14.3557 -14.3487 -14.3186 -14.3165 -14.3128 -14.3097 -14.3091 -14.2977
   -14.2975 -14.2900 -14.2801 -14.2801 -14.2770 -14.2739 -14.2698 -14.2695
   -14.2683 -14.2656 -14.2653 -14.2623 -14.2600 -14.2561 -14.2544 -14.2529
   -14.2510 -14.2488 -14.2476 -14.2429 -14.2423 -14.2404 -14.2349 -14.2325
   -14.2281 -14.2229 -14.2212 -14.2195 -14.2153 -14.2142 -14.2110 -14.2105
    -9.8155  -9.7865  -9.7218  -9.7010  -9.6678  -9.6452  -9.6051  -9.5996
    -9.4821  -9.4514  -9.4216  -9.3981  -9.3721  -9.3256  -9.3145  -9.2942
    -9.2429  -9.2033  -9.1663  -9.1444  -9.1283  -9.1053  -9.0845  -9.0775
    -9.0564  -9.0397  -9.0182  -8.9974  -8.9801  -8.9650  -8.9175  -8.8848
    -7.7980  -7.7448  -7.6963  -7.6782  -7.6662  -7.6504  -7.6457  -7.6346
    -7.1018  -7.0864  -7.0670  -7.0329  -7.0316  -7.0041  -6.9966  -6.9367
    -5.7773  -5.5819  -5.4930  -5.3936  -5.3741  -5.3632  -5.3548  -5.3344
    -5.3212  -5.3147  -5.2959  -5.2800  -5.1697  -5.1353  -4.9286  -4.7565
    -3.8889  -3.8792  -3.8513  -3.8241  -3.8103  -3.8026  -3.7850  -3.7684
    -3.3300  -3.3182  -3.3060  -3.2657  -3.2645  -3.2565  -3.2407  -3.2047
    -0.8933  -0.8333  -0.7380  -0.7082  -0.6907  -0.6332  -0.5891  -0.5412
    -0.4115  -0.3840  -0.3110  -0.2328  -0.1882  -0.1618  -0.1442  -0.1087
    -0.0967  -0.0695  -0.0254  -0.0027   0.1975   0.2556   0.3218   0.3595
     0.3989   0.4667   0.4734   0.4922   0.5036   0.5186   0.5451   0.6062
     0.6408   0.6696   0.7145   0.7547   0.8283   0.8326   0.8979   0.9195
     0.9529   0.9836   1.0085   1.0137   1.0313   1.0474   1.0811   1.0935
     1.1118   1.1306   1.1503   1.1757   1.1864   1.2146   1.2232   1.2397
     1.2543   1.2809   1.2888   1.3072   1.3187   1.3260   1.3548   1.3914
     1.4030   1.4201   1.4309   1.4620   1.4741   1.4933   1.5216   1.5408
     1.5678   1.5892   1.6257   1.6750   1.6897   1.7130   1.8396   1.8939

          k =-0.1250-0.3702 0.3753 (310926 PWs)   bands (ev):

   -17.9408 -17.9046 -17.8949 -17.8616 -17.8481 -17.8388 -17.8369 -17.8059
   -15.7339 -15.7161 -15.6757 -15.6451 -15.6331 -15.6137 -15.6047 -15.5632
   -14.3555 -14.3486 -14.3186 -14.3165 -14.3126 -14.3097 -14.3091 -14.2974
   -14.2973 -14.2898 -14.2801 -14.2799 -14.2774 -14.2739 -14.2700 -14.2695
   -14.2683 -14.2656 -14.2653 -14.2625 -14.2600 -14.2561 -14.2547 -14.2529
   -14.2511 -14.2489 -14.2477 -14.2429 -14.2424 -14.2404 -14.2349 -14.2325
   -14.2281 -14.2229 -14.2212 -14.2195 -14.2153 -14.2142 -14.2110 -14.2105
    -9.7985  -9.7768  -9.7219  -9.6967  -9.6713  -9.6666  -9.6308  -9.6027
    -9.4820  -9.4441  -9.4127  -9.3945  -9.3573  -9.3479  -9.3261  -9.2960
    -9.2643  -9.1808  -9.1617  -9.1255  -9.1149  -9.0993  -9.0857  -9.0727
    -9.0577  -9.0391  -9.0174  -9.0078  -8.9886  -8.9578  -8.9268  -8.8877
    -7.7981  -7.7448  -7.6950  -7.6792  -7.6638  -7.6511  -7.6481  -7.6345
    -7.1019  -7.0864  -7.0670  -7.0328  -7.0316  -7.0041  -6.9966  -6.9366
    -5.6659  -5.5122  -5.4894  -5.4641  -5.3816  -5.3628  -5.3553  -5.3446
    -5.3147  -5.3042  -5.2857  -5.2656  -5.2317  -5.0755  -5.0366  -4.8832
    -3.8880  -3.8788  -3.8493  -3.8262  -3.8118  -3.8004  -3.7864  -3.7684
    -3.3300  -3.3177  -3.3062  -3.2654  -3.2639  -3.2577  -3.2410  -3.2049
    -0.8487  -0.7290  -0.6708  -0.6056  -0.4705  -0.4288  -0.3809  -0.3464
    -0.3322  -0.3018  -0.2603  -0.2482  -0.1552  -0.1352  -0.1246  -0.1135
    -0.0755  -0.0612  -0.0361   0.0015   0.1062   0.1655   0.2139   0.2449
     0.2788   0.3163   0.3430   0.3890   0.4318   0.5040   0.5171   0.5510
     0.5970   0.6419   0.7031   0.7226   0.7589   0.8046   0.8238   0.8419
     0.8706   0.8951   0.9501   0.9741   0.9970   1.0191   1.0482   1.0747
     1.1143   1.1352   1.1451   1.1698   1.1970   1.2173   1.2337   1.2505
     1.2742   1.2872   1.3014   1.3267   1.3320   1.3399   1.3607   1.3739
     1.3970   1.4060   1.4373   1.4525   1.4679   1.4851   1.4968   1.5383
     1.5551   1.5740   1.6018   1.6339   1.6458   1.6717   1.7175   1.7897

          k =-0.1250 0.3702-0.3753 (310926 PWs)   bands (ev):

   -17.9408 -17.9046 -17.8949 -17.8616 -17.8481 -17.8388 -17.8369 -17.8059
   -15.7339 -15.7161 -15.6757 -15.6451 -15.6331 -15.6137 -15.6047 -15.5632
   -14.3555 -14.3486 -14.3186 -14.3165 -14.3126 -14.3097 -14.3091 -14.2974
   -14.2973 -14.2898 -14.2801 -14.2799 -14.2774 -14.2739 -14.2700 -14.2695
   -14.2683 -14.2656 -14.2653 -14.2625 -14.2600 -14.2561 -14.2547 -14.2529
   -14.2511 -14.2489 -14.2477 -14.2429 -14.2424 -14.2404 -14.2349 -14.2325
   -14.2281 -14.2229 -14.2212 -14.2195 -14.2153 -14.2142 -14.2110 -14.2105
    -9.7981  -9.7775  -9.7226  -9.6976  -9.6706  -9.6653  -9.6298  -9.6055
    -9.4665  -9.4491  -9.4221  -9.3859  -9.3667  -9.3531  -9.3253  -9.2955
    -9.2619  -9.1777  -9.1596  -9.1277  -9.1159  -9.0959  -9.0859  -9.0766
    -9.0579  -9.0337  -9.0199  -9.0106  -8.9846  -8.9600  -8.9260  -8.8883
    -7.7979  -7.7448  -7.6951  -7.6790  -7.6634  -7.6517  -7.6480  -7.6349
    -7.1019  -7.0865  -7.0669  -7.0329  -7.0316  -7.0041  -6.9965  -6.9366
    -5.6654  -5.5160  -5.4867  -5.4650  -5.3807  -5.3633  -5.3558  -5.3447
    -5.3159  -5.3019  -5.2862  -5.2659  -5.2284  -5.0758  -5.0371  -4.8847
    -3.8879  -3.8786  -3.8496  -3.8258  -3.8120  -3.8006  -3.7864  -3.7683
    -3.3298  -3.3177  -3.3060  -3.2664  -3.2637  -3.2571  -3.2410  -3.2050
    -0.8419  -0.7158  -0.6720  -0.5983  -0.4789  -0.4342  -0.3921  -0.3502
    -0.3401  -0.3113  -0.2641  -0.2521  -0.1698  -0.1344  -0.1212  -0.1039
    -0.0719  -0.0660  -0.0395  -0.0032   0.1100   0.1722   0.2313   0.2596
     0.2895   0.3161   0.3599   0.3785   0.4297   0.4911   0.5135   0.5457
     0.6051   0.6541   0.7107   0.7196   0.7673   0.7806   0.8290   0.8507
     0.8726   0.8895   0.9553   0.9750   0.9944   1.0071   1.0433   1.0749
     1.0987   1.1268   1.1628   1.1756   1.1924   1.2157   1.2366   1.2502
     1.2693   1.2768   1.3084   1.3217   1.3327   1.3447   1.3689   1.3746
     1.3958   1.4116   1.4390   1.4501   1.4674   1.4931   1.5030   1.5322
     1.5537   1.5704   1.6006   1.6440   1.6536   1.6741   1.7119   1.7628

          k = 0.1250-0.3702-0.3753 (310926 PWs)   bands (ev):

   -17.9408 -17.9046 -17.8949 -17.8616 -17.8481 -17.8388 -17.8369 -17.8059
   -15.7339 -15.7161 -15.6757 -15.6451 -15.6331 -15.6137 -15.6047 -15.5632
   -14.3555 -14.3486 -14.3186 -14.3165 -14.3126 -14.3097 -14.3091 -14.2974
   -14.2973 -14.2898 -14.2801 -14.2799 -14.2774 -14.2739 -14.2700 -14.2695
   -14.2683 -14.2656 -14.2653 -14.2625 -14.2600 -14.2561 -14.2547 -14.2529
   -14.2511 -14.2489 -14.2477 -14.2429 -14.2424 -14.2404 -14.2349 -14.2325
   -14.2281 -14.2229 -14.2212 -14.2195 -14.2153 -14.2142 -14.2110 -14.2105
    -9.7985  -9.7756  -9.7237  -9.6974  -9.6734  -9.6638  -9.6305  -9.6047
    -9.4765  -9.4376  -9.4215  -9.3899  -9.3671  -9.3465  -9.3157  -9.3009
    -9.2713  -9.1768  -9.1601  -9.1281  -9.1088  -9.1035  -9.0923  -9.0696
    -9.0573  -9.0367  -9.0156  -9.0086  -8.9878  -8.9586  -8.9269  -8.8881
    -7.7980  -7.7449  -7.6951  -7.6790  -7.6639  -7.6508  -7.6485  -7.6346
    -7.1019  -7.0864  -7.0670  -7.0329  -7.0316  -7.0041  -6.9965  -6.9366
    -5.6667  -5.5127  -5.4993  -5.4462  -5.3796  -5.3684  -5.3552  -5.3405
    -5.3270  -5.3056  -5.2933  -5.2549  -5.2266  -5.0736  -5.0396  -4.8842
    -3.8879  -3.8785  -3.8498  -3.8257  -3.8120  -3.8005  -3.7865  -3.7683
    -3.3299  -3.3180  -3.3061  -3.2661  -3.2640  -3.2569  -3.2409  -3.2048
    -0.8429  -0.7169  -0.6730  -0.6015  -0.4742  -0.4323  -0.3896  -0.3560
    -0.3177  -0.3006  -0.2765  -0.2539  -0.1731  -0.1504  -0.1305  -0.1049
    -0.0804  -0.0692  -0.0341  -0.0029   0.1182   0.1912   0.2350   0.2777
     0.2982   0.3139   0.3350   0.3674   0.4295   0.4903   0.5193   0.5499
     0.6067   0.6492   0.6971   0.7251   0.7504   0.7934   0.8270   0.8398
     0.8783   0.9165   0.9319   0.9746   0.9958   1.0064   1.0482   1.0849
     1.0942   1.1300   1.1536   1.1794   1.1976   1.2072   1.2421   1.2449
     1.2707   1.2873   1.2959   1.3313   1.3351   1.3449   1.3710   1.3795
     1.3922   1.4045   1.4348   1.4539   1.4689   1.4880   1.5119   1.5369
     1.5476   1.5690   1.6046   1.6334   1.6467   1.6740   1.7146   1.7687

          k =-0.3750-0.1234 0.1251 (310926 PWs)   bands (ev):

   -17.9405 -17.9048 -17.8949 -17.8616 -17.8482 -17.8386 -17.8370 -17.8059
   -15.7288 -15.7212 -15.6758 -15.6451 -15.6332 -15.6135 -15.6048 -15.5632
   -14.3554 -14.3488 -14.3186 -14.3165 -14.3131 -14.3098 -14.3095 -14.2981
   -14.2973 -14.2897 -14.2801 -14.2794 -14.2768 -14.2739 -14.2701 -14.2695
   -14.2683 -14.2658 -14.2656 -14.2620 -14.2600 -14.2561 -14.2549 -14.2529
   -14.2499 -14.2477 -14.2474 -14.2442 -14.2429 -14.2404 -14.2349 -14.2325
   -14.2281 -14.2229 -14.2212 -14.2195 -14.2153 -14.2142 -14.2110 -14.2105
    -9.7963  -9.7581  -9.7378  -9.7188  -9.6887  -9.6440  -9.6096  -9.6042
    -9.5093  -9.4694  -9.4054  -9.3734  -9.3573  -9.3325  -9.2998  -9.2522
    -9.2331  -9.2051  -9.1784  -9.1589  -9.1486  -9.1306  -9.1093  -9.0730
    -9.0384  -9.0286  -9.0069  -8.9979  -8.9752  -8.9492  -8.9322  -8.8904
    -7.7944  -7.7517  -7.6957  -7.6819  -7.6657  -7.6485  -7.6468  -7.6338
    -7.1010  -7.0864  -7.0669  -7.0326  -7.0317  -7.0046  -6.9955  -6.9366
    -5.7753  -5.5971  -5.4646  -5.4040  -5.3788  -5.3627  -5.3522  -5.3328
    -5.3255  -5.3083  -5.2986  -5.2802  -5.1823  -5.1366  -4.9139  -4.7495
    -3.8925  -3.8776  -3.8502  -3.8251  -3.8082  -3.8037  -3.7854  -3.7686
    -3.3279  -3.3201  -3.3051  -3.2655  -3.2636  -3.2525  -3.2452  -3.2066
    -0.8633  -0.8190  -0.7828  -0.7474  -0.7140  -0.6609  -0.6552  -0.6019
    -0.4466  -0.3412  -0.2652  -0.2192  -0.1753  -0.1432  -0.1205  -0.1031
    -0.0769  -0.0515  -0.0341  -0.0024   0.1144   0.2254   0.3207   0.3861
     0.4202   0.4401   0.4678   0.5005   0.5222   0.5432   0.5602   0.6023
     0.6250   0.7083   0.7706   0.8026   0.8387   0.8705   0.8968   0.9170
     0.9625   0.9754   0.9892   1.0059   1.0293   1.0521   1.0789   1.1035
     1.1131   1.1325   1.1490   1.1696   1.1962   1.2161   1.2200   1.2324
     1.2578   1.2646   1.2833   1.2983   1.3080   1.3410   1.3780   1.3986
     1.4102   1.4332   1.4517   1.4727   1.4799   1.5012   1.5311   1.5681
     1.5916   1.6069   1.6318   1.6345   1.6860   1.7091   1.8045   1.8917

          k =-0.3750 0.1234-0.1251 (310926 PWs)   bands (ev):

   -17.9405 -17.9048 -17.8949 -17.8616 -17.8482 -17.8386 -17.8370 -17.8059
   -15.7288 -15.7212 -15.6758 -15.6451 -15.6332 -15.6135 -15.6048 -15.5632
   -14.3554 -14.3488 -14.3186 -14.3165 -14.3131 -14.3098 -14.3095 -14.2981
   -14.2973 -14.2897 -14.2801 -14.2794 -14.2768 -14.2739 -14.2701 -14.2695
   -14.2683 -14.2658 -14.2656 -14.2620 -14.2600 -14.2561 -14.2549 -14.2529
   -14.2499 -14.2476 -14.2474 -14.2442 -14.2429 -14.2404 -14.2349 -14.2325
   -14.2281 -14.2229 -14.2212 -14.2195 -14.2153 -14.2142 -14.2110 -14.2105
    -9.7968  -9.7590  -9.7393  -9.7159  -9.6885  -9.6436  -9.6081  -9.6058
    -9.5049  -9.4695  -9.4128  -9.3809  -9.3577  -9.3268  -9.2902  -9.2481
    -9.2324  -9.2210  -9.1819  -9.1582  -9.1374  -9.1260  -9.1145  -9.0729
    -9.0457  -9.0254  -9.0083  -8.9915  -8.9768  -8.9517  -8.9293  -8.8919
    -7.7942  -7.7517  -7.6958  -7.6817  -7.6656  -7.6490  -7.6466  -7.6341
    -7.1010  -7.0865  -7.0668  -7.0326  -7.0317  -7.0046  -6.9954  -6.9366
    -5.7747  -5.5989  -5.4653  -5.4031  -5.3817  -5.3684  -5.3522  -5.3330
    -5.3213  -5.3084  -5.2880  -5.2783  -5.1863  -5.1393  -4.9133  -4.7505
    -3.8922  -3.8777  -3.8506  -3.8246  -3.8083  -3.8039  -3.7855  -3.7685
    -3.3278  -3.3200  -3.3049  -3.2655  -3.2643  -3.2520  -3.2453  -3.2066
    -0.8593  -0.8070  -0.7850  -0.7518  -0.6982  -0.6665  -0.6505  -0.6074
    -0.4640  -0.3523  -0.2776  -0.2084  -0.1829  -0.1546  -0.1281  -0.1078
    -0.0756  -0.0414  -0.0313  -0.0077   0.1257   0.2467   0.3261   0.3855
     0.4322   0.4429   0.4651   0.4898   0.5268   0.5378   0.5599   0.6117
     0.6431   0.6982   0.7666   0.8062   0.8400   0.8676   0.8933   0.9116
     0.9549   0.9814   0.9917   1.0102   1.0303   1.0571   1.0680   1.0947
     1.1173   1.1398   1.1576   1.1726   1.1816   1.2062   1.2181   1.2353
     1.2485   1.2586   1.2853   1.2905   1.3234   1.3464   1.3656   1.3914
     1.4183   1.4298   1.4471   1.4692   1.4964   1.5169   1.5463   1.5615
     1.5759   1.6105   1.6398   1.6513   1.6690   1.7003   1.8183   1.8663

          k = 0.3750-0.1234-0.1251 (310926 PWs)   bands (ev):

   -17.9405 -17.9048 -17.8949 -17.8616 -17.8482 -17.8386 -17.8370 -17.8059
   -15.7288 -15.7212 -15.6758 -15.6451 -15.6332 -15.6135 -15.6048 -15.5632
   -14.3554 -14.3488 -14.3186 -14.3165 -14.3131 -14.3098 -14.3095 -14.2981
   -14.2973 -14.2897 -14.2801 -14.2794 -14.2768 -14.2739 -14.2701 -14.2695
   -14.2683 -14.2658 -14.2656 -14.2620 -14.2600 -14.2561 -14.2549 -14.2529
   -14.2499 -14.2476 -14.2474 -14.2442 -14.2429 -14.2404 -14.2349 -14.2325
   -14.2281 -14.2229 -14.2212 -14.2195 -14.2153 -14.2142 -14.2110 -14.2105
    -9.7960  -9.7570  -9.7408  -9.7168  -9.6900  -9.6432  -9.6098  -9.6051
    -9.5058  -9.4675  -9.4072  -9.3797  -9.3641  -9.3160  -9.2946  -9.2683
    -9.2251  -9.2138  -9.1806  -9.1533  -9.1423  -9.1271  -9.1155  -9.0780
    -9.0404  -9.0230  -9.0077  -8.9932  -8.9797  -8.9465  -8.9335  -8.8910
    -7.7943  -7.7518  -7.6958  -7.6817  -7.6658  -7.6485  -7.6468  -7.6338
    -7.1010  -7.0865  -7.0669  -7.0326  -7.0317  -7.0046  -6.9954  -6.9366
    -5.7751  -5.5986  -5.4652  -5.4041  -5.3832  -5.3624  -5.3544  -5.3282
    -5.3211  -5.3090  -5.2894  -5.2843  -5.1843  -5.1399  -4.9128  -4.7506
    -3.8923  -3.8776  -3.8508  -3.8244  -3.8086  -3.8035  -3.7856  -3.7685
    -3.3279  -3.3203  -3.3050  -3.2655  -3.2642  -3.2519  -3.2453  -3.2065
    -0.8633  -0.8043  -0.7840  -0.7551  -0.6943  -0.6664  -0.6579  -0.5991
    -0.4647  -0.3504  -0.2757  -0.2157  -0.1837  -0.1485  -0.1292  -0.1047
    -0.0803  -0.0441  -0.0284  -0.0077   0.1250   0.2487   0.3243   0.3914
     0.4303   0.4379   0.4673   0.4894   0.5267   0.5403   0.5730   0.5917
     0.6353   0.6904   0.7911   0.8064   0.8490   0.8706   0.8953   0.9216
     0.9375   0.9758   0.9899   0.9950   1.0327   1.0436   1.0822   1.1072
     1.1145   1.1414   1.1517   1.1613   1.1844   1.1977   1.2225   1.2357
     1.2574   1.2657   1.2797   1.3102   1.3145   1.3398   1.3737   1.3856
     1.4226   1.4360   1.4491   1.4695   1.4949   1.5133   1.5344   1.5579
     1.5815   1.6161   1.6218   1.6510   1.6808   1.6984   1.8144   1.8724

          k =-0.3750-0.1234 0.3753 (310913 PWs)   bands (ev):

   -17.9405 -17.9048 -17.8949 -17.8616 -17.8481 -17.8387 -17.8370 -17.8059
   -15.7288 -15.7212 -15.6757 -15.6451 -15.6331 -15.6136 -15.6048 -15.5632
   -14.3553 -14.3487 -14.3186 -14.3165 -14.3128 -14.3097 -14.3095 -14.2978
   -14.2971 -14.2896 -14.2801 -14.2791 -14.2772 -14.2739 -14.2703 -14.2695
   -14.2683 -14.2658 -14.2656 -14.2622 -14.2600 -14.2561 -14.2552 -14.2529
   -14.2501 -14.2477 -14.2475 -14.2443 -14.2429 -14.2404 -14.2349 -14.2325
   -14.2281 -14.2229 -14.2212 -14.2195 -14.2153 -14.2142 -14.2110 -14.2105
    -9.7800  -9.7521  -9.7269  -9.7124  -9.6891  -9.6700  -9.6399  -9.6106
    -9.4954  -9.4404  -9.4205  -9.4054  -9.3486  -9.3247  -9.3118  -9.2826
    -9.2308  -9.2114  -9.1541  -9.1497  -9.1261  -9.1127  -9.0885  -9.0661
    -9.0534  -9.0330  -9.0142  -8.9975  -8.9801  -8.9471  -8.9409  -8.8961
    -7.7941  -7.7518  -7.6943  -7.6826  -7.6628  -7.6501  -7.6492  -7.6345
    -7.1011  -7.0864  -7.0668  -7.0326  -7.0317  -7.0046  -6.9954  -6.9366
    -5.6648  -5.5100  -5.4745  -5.4595  -5.4039  -5.3630  -5.3594  -5.3372
    -5.3328  -5.3057  -5.2984  -5.2753  -5.2058  -5.0619  -5.0304  -4.8793
    -3.8914  -3.8768  -3.8493  -3.8274  -3.8074  -3.8032  -3.7872  -3.7687
    -3.3279  -3.3199  -3.3049  -3.2649  -3.2637  -3.2527  -3.2453  -3.2064
    -0.8017  -0.7754  -0.7128  -0.6820  -0.5339  -0.4474  -0.4130  -0.3761
    -0.3213  -0.2861  -0.2335  -0.1888  -0.1748  -0.1378  -0.1189  -0.0946
    -0.0810  -0.0512  -0.0334   0.0079   0.0840   0.1601   0.2173   0.2559
     0.2746   0.3275   0.3598   0.4136   0.4495   0.4630   0.4940   0.5326
     0.6327   0.6874   0.7313   0.7607   0.7898   0.8180   0.8327   0.8684
     0.9128   0.9337   0.9609   0.9684   0.9976   1.0333   1.0481   1.0671
     1.1007   1.1245   1.1443   1.1640   1.1895   1.2139   1.2250   1.2365
     1.2675   1.2914   1.2953   1.3122   1.3278   1.3445   1.3639   1.3753
     1.4043   1.4132   1.4332   1.4449   1.4782   1.4867   1.5142   1.5359
     1.5499   1.5907   1.6005   1.6357   1.6610   1.6890   1.7178   1.7616

          k =-0.3750 0.1234-0.3753 (310913 PWs)   bands (ev):

   -17.9405 -17.9048 -17.8949 -17.8616 -17.8481 -17.8387 -17.8370 -17.8059
   -15.7288 -15.7212 -15.6757 -15.6451 -15.6331 -15.6136 -15.6048 -15.5632
   -14.3553 -14.3487 -14.3186 -14.3165 -14.3128 -14.3097 -14.3095 -14.2978
   -14.2971 -14.2896 -14.2801 -14.2791 -14.2772 -14.2739 -14.2703 -14.2695
   -14.2683 -14.2658 -14.2656 -14.2622 -14.2600 -14.2561 -14.2552 -14.2529
   -14.2501 -14.2477 -14.2475 -14.2443 -14.2429 -14.2404 -14.2349 -14.2325
   -14.2281 -14.2229 -14.2212 -14.2195 -14.2153 -14.2142 -14.2110 -14.2105
    -9.7802  -9.7532  -9.7259  -9.7125  -9.6907  -9.6696  -9.6374  -9.6121
    -9.4811  -9.4544  -9.4297  -9.3956  -9.3503  -9.3303  -9.3089  -9.2753
    -9.2338  -9.2163  -9.1590  -9.1373  -9.1252  -9.1108  -9.0954  -9.0668
    -9.0515  -9.0377  -9.0104  -8.9949  -8.9778  -8.9587  -8.9316  -8.8980
    -7.7940  -7.7517  -7.6944  -7.6824  -7.6623  -7.6512  -7.6487  -7.6348
    -7.1010  -7.0864  -7.0667  -7.0327  -7.0317  -7.0047  -6.9953  -6.9366
    -5.6636  -5.5101  -5.4826  -5.4592  -5.4017  -5.3685  -5.3539  -5.3377
    -5.3180  -5.3088  -5.2979  -5.2820  -5.2040  -5.0626  -5.0312  -4.8803
    -3.8911  -3.8768  -3.8496  -3.8269  -3.8081  -3.8030  -3.7872  -3.7687
    -3.3277  -3.3199  -3.3047  -3.2652  -3.2642  -3.2522  -3.2453  -3.2064
    -0.7882  -0.7734  -0.7055  -0.6852  -0.5262  -0.4682  -0.4156  -0.3660
    -0.3398  -0.2858  -0.2640  -0.1870  -0.1692  -0.1474  -0.1188  -0.1067
    -0.0667  -0.0532  -0.0324  -0.0045   0.0941   0.1896   0.2201   0.2566
     0.3071   0.3200   0.3695   0.4151   0.4292   0.4593   0.4988   0.5278
     0.6394   0.6912   0.7291   0.7602   0.7970   0.8034   0.8430   0.8716
     0.9211   0.9362   0.9499   0.9796   0.9936   1.0243   1.0348   1.0747
     1.0948   1.1197   1.1344   1.1756   1.1884   1.2191   1.2243   1.2338
     1.2634   1.2657   1.2885   1.3047   1.3257   1.3434   1.3631   1.3853
[...]
     0.2373   0.2674   0.2902   0.3087   0.3606   0.3869   0.4360   0.4840
     0.6461   0.6764   0.7276   0.7427   0.7877   0.8050   0.8308   0.8442
     0.8593   0.8879   0.9166   0.9362   0.9539   0.9858   0.9937   1.0200
     1.0545   1.0734   1.0841   1.1005   1.1258   1.1417   1.1584   1.1678
     1.2681   1.2935   1.3315   1.3522   1.3621   1.3676   1.3838   1.3923
     1.4060   1.4230   1.4458   1.4581   1.4849   1.4936   1.5103   1.5308
     1.5463   1.5636   1.5926   1.6098   1.6185   1.6531   1.6746   1.6918

          k =-0.3743 0.3707-0.3759 (310927 PWs)   bands (ev):

   -17.9337 -17.9161 -17.8853 -17.8847 -17.8549 -17.8456 -17.8447 -17.8146
   -15.7312 -15.7025 -15.6657 -15.6548 -15.6296 -15.6249 -15.6167 -15.5690
   -14.3474 -14.3435 -14.3143 -14.3113 -14.3043 -14.2948 -14.2877 -14.2865
   -14.2807 -14.2773 -14.2762 -14.2729 -14.2658 -14.2605 -14.2602 -14.2537
   -14.2509 -14.2508 -14.2501 -14.2497 -14.2478 -14.2469 -14.2451 -14.2441
   -14.2424 -14.2420 -14.2406 -14.2348 -14.2347 -14.2270 -14.2234 -14.2181
   -14.2171 -14.2143 -14.2129 -14.2099 -14.2051 -14.1851 -14.1749 -14.1659
    -9.7673  -9.7517  -9.7269  -9.7014  -9.6808  -9.6574  -9.6236  -9.6103
    -9.4494  -9.4322  -9.4059  -9.3862  -9.3811  -9.3388  -9.3251  -9.2934
    -9.2104  -9.1704  -9.1439  -9.1187  -9.1128  -9.0916  -9.0828  -9.0657
    -9.0462  -9.0221  -9.0012  -8.9909  -8.9697  -8.9526  -8.9291  -8.8819
    -7.7667  -7.7553  -7.6919  -7.6872  -7.6681  -7.6648  -7.6561  -7.6359
    -7.1100  -7.0697  -7.0599  -7.0439  -7.0223  -7.0213  -6.9937  -6.9444
    -5.5428  -5.4356  -5.4152  -5.3949  -5.3791  -5.3656  -5.3488  -5.3314
    -5.3183  -5.3076  -5.2865  -5.2662  -5.2078  -5.1596  -5.1527  -5.0072
    -3.8844  -3.8607  -3.8314  -3.8235  -3.8052  -3.7923  -3.7789  -3.7569
    -3.3375  -3.3189  -3.2936  -3.2784  -3.2642  -3.2579  -3.2479  -3.2109
    -0.5150  -0.4850  -0.4434  -0.4382  -0.3878  -0.3554  -0.3294  -0.3109
    -0.2948  -0.2822  -0.2342  -0.1917  -0.1527  -0.1238  -0.1185  -0.1003
    -0.0706  -0.0553  -0.0382   0.0079   0.1192   0.1588   0.1797   0.2212
     0.2437   0.2804   0.2929   0.3146   0.3600   0.3923   0.4203   0.4483
     0.6598   0.6891   0.7272   0.7426   0.7788   0.8001   0.8103   0.8466
     0.8841   0.8928   0.9102   0.9476   0.9595   0.9730   0.9916   1.0084
     1.0574   1.0636   1.0905   1.1076   1.1119   1.1308   1.1472   1.1813
     1.2667   1.2916   1.3284   1.3435   1.3574   1.3735   1.3879   1.3971
     1.4077   1.4294   1.4496   1.4596   1.4810   1.4950   1.5234   1.5335
     1.5471   1.5703   1.5849   1.6052   1.6203   1.6496   1.6676   1.6861

          k = 0.3743-0.3707-0.3759 (310927 PWs)   bands (ev):

   -17.9337 -17.9161 -17.8853 -17.8847 -17.8549 -17.8456 -17.8447 -17.8146
   -15.7312 -15.7025 -15.6657 -15.6548 -15.6296 -15.6249 -15.6167 -15.5690
   -14.3474 -14.3435 -14.3143 -14.3113 -14.3043 -14.2948 -14.2877 -14.2865
   -14.2807 -14.2773 -14.2762 -14.2729 -14.2658 -14.2605 -14.2602 -14.2537
   -14.2509 -14.2508 -14.2501 -14.2497 -14.2478 -14.2469 -14.2451 -14.2441
   -14.2424 -14.2420 -14.2406 -14.2348 -14.2347 -14.2270 -14.2234 -14.2181
   -14.2171 -14.2143 -14.2129 -14.2099 -14.2051 -14.1851 -14.1749 -14.1659
    -9.7660  -9.7521  -9.7249  -9.7030  -9.6850  -9.6573  -9.6222  -9.6086
    -9.4536  -9.4289  -9.4030  -9.3924  -9.3759  -9.3379  -9.3180  -9.3020
    -9.2132  -9.1678  -9.1454  -9.1187  -9.1055  -9.0974  -9.0793  -9.0754
    -9.0414  -9.0199  -9.0065  -8.9858  -8.9685  -8.9504  -8.9344  -8.8808
    -7.7666  -7.7557  -7.6920  -7.6872  -7.6685  -7.6643  -7.6562  -7.6355
    -7.1100  -7.0696  -7.0600  -7.0439  -7.0224  -7.0212  -6.9937  -6.9444
    -5.5450  -5.4330  -5.4200  -5.3989  -5.3729  -5.3628  -5.3430  -5.3235
    -5.3166  -5.3101  -5.2914  -5.2796  -5.2025  -5.1658  -5.1474  -5.0070
    -3.8843  -3.8609  -3.8320  -3.8228  -3.8054  -3.7920  -3.7790  -3.7567
    -3.3376  -3.3191  -3.2938  -3.2780  -3.2641  -3.2581  -3.2479  -3.2107
    -0.5290  -0.4794  -0.4517  -0.4017  -0.3938  -0.3478  -0.3360  -0.3157
    -0.2992  -0.2713  -0.2227  -0.2026  -0.1771  -0.1387  -0.1254  -0.0884
    -0.0758  -0.0577  -0.0381   0.0139   0.1225   0.1572   0.1931   0.2179
     0.2568   0.2860   0.3066   0.3281   0.3566   0.3805   0.3975   0.4495
     0.6697   0.6926   0.7171   0.7372   0.7677   0.7984   0.8235   0.8592
     0.8690   0.8914   0.9149   0.9403   0.9493   0.9729   0.9959   1.0068
     1.0612   1.0653   1.0774   1.1048   1.1209   1.1415   1.1503   1.1822
     1.2769   1.2895   1.3174   1.3541   1.3635   1.3726   1.3825   1.3958
     1.4128   1.4258   1.4510   1.4672   1.4885   1.4932   1.5155   1.5344
     1.5451   1.5545   1.5835   1.6069   1.6149   1.6505   1.6663   1.6937

     highest occupied level (ev):     2.0972

!    total energy              =  -16707.47307234 Ry
     Harris-Foulkes estimate   =  -16707.47307236 Ry
     estimated scf accuracy    <       0.00000002 Ry

     total all-electron energy =   -678114.532757 Ry

     The total energy is the sum of the following terms:

     one-electron contribution =    -947.70062818 Ry
     hartree contribution      =     673.27566651 Ry
     xc contribution           =    -795.78496372 Ry
     ewald contribution        =   -1218.63728664 Ry
     DFT-D3 Dispersion         =      -0.64469818 Ry
     one-center paw contrib.   =  -14417.98116213 Ry

     convergence has been achieved in   8 iterations

     Forces acting on atoms (cartesian axes, Ry/au):

     atom    1 type  1   force =     0.00037575    0.00016718   -0.00036534
     atom    2 type  1   force =    -0.00020696   -0.00003369    0.00022392
     atom    3 type  1   force =     0.00054129   -0.00003160   -0.00010837
     atom    4 type  1   force =    -0.00038280   -0.00020929    0.00069413
     atom    5 type  1   force =    -0.00005912   -0.00016663    0.00012864
     atom    6 type  1   force =     0.00012364    0.00045431    0.00058329
     atom    7 type  1   force =     0.00091944   -0.00041719    0.00138655
     atom    8 type  1   force =     0.00016127    0.00014914   -0.00025332
     atom    9 type  2   force =    -0.00084381    0.00058162   -0.00040619
     atom   10 type  2   force =    -0.00160056    0.00021085   -0.00056057
     atom   11 type  2   force =    -0.00040628    0.00063934   -0.00041739
     atom   12 type  2   force =    -0.00230613   -0.00105653    0.00046637
     atom   13 type  2   force =    -0.00030104   -0.00000076    0.00013454
     atom   14 type  2   force =     0.00041335   -0.00021022    0.00004625
     atom   15 type  2   force =     0.00145110   -0.00061139   -0.00022959
     atom   16 type  2   force =    -0.00013278   -0.00008663   -0.00030094
     atom   17 type  2   force =     0.00074241    0.00016497   -0.00073392
     atom   18 type  2   force =     0.00167115   -0.00042657    0.00027264
     atom   19 type  2   force =     0.00005765   -0.00032759    0.00018800
     atom   20 type  2   force =    -0.00082741   -0.00055194    0.00038570
     atom   21 type  2   force =    -0.00015289    0.00061765    0.00102743
     atom   22 type  2   force =     0.00051247    0.00115305    0.00080348
     atom   23 type  2   force =    -0.00173384    0.00107005   -0.00010585
     atom   24 type  2   force =     0.00021014   -0.00073512   -0.00038536
     atom   25 type  2   force =     0.00009261    0.00039806    0.00049471
     atom   26 type  2   force =     0.00020647    0.00008343   -0.00318012
     atom   27 type  2   force =    -0.00022282    0.00029710   -0.00106556
     atom   28 type  2   force =     0.00105696   -0.00015878   -0.00077807
     atom   29 type  2   force =    -0.00023375    0.00016460   -0.00007819
     atom   30 type  2   force =    -0.00057256   -0.00000610    0.00021596
     atom   31 type  2   force =    -0.00040071    0.00004439    0.00065902
     atom   32 type  2   force =     0.00036334    0.00063257    0.00049555
     atom   33 type  3   force =    -0.00153723    0.00123951   -0.00019875
     atom   34 type  3   force =     0.00454163   -0.00096316    0.00288100
     atom   35 type  3   force =    -0.00232544   -0.00062331   -0.00105775
     atom   36 type  3   force =    -0.00130699    0.00032221    0.00098676
     atom   37 type  3   force =     0.00296561    0.00021198    0.00113607
     atom   38 type  3   force =    -0.00235977    0.00025939    0.00096532
     atom   39 type  3   force =    -0.00000021    0.00155552   -0.00055669
     atom   40 type  3   force =    -0.00071985    0.00133759    0.00002504
     atom   41 type  4   force =     0.00042693   -0.00124164    0.00012908
     atom   42 type  4   force =    -0.00218403   -0.00064580   -0.00259250
     atom   43 type  4   force =     0.00038961    0.00228254    0.00131371
     atom   44 type  4   force =     0.00100207   -0.00095614   -0.00022764
     atom   45 type  4   force =    -0.00132923   -0.00207381   -0.00075030
     atom   46 type  4   force =     0.00157358    0.00003036   -0.00021526
     atom   47 type  4   force =    -0.00038012    0.00074557    0.00156368
     atom   48 type  4   force =     0.00101107   -0.00224116    0.00113448
     atom   49 type  4   force =     0.00146676    0.00041574    0.00227732
     atom   50 type  4   force =    -0.00087679    0.00191120    0.00069743
     atom   51 type  4   force =     0.00012302   -0.00024235   -0.00098630
     atom   52 type  4   force =     0.00016522   -0.00092890   -0.00138936
     atom   53 type  4   force =    -0.00050194    0.00080173   -0.00053105
     atom   54 type  4   force =     0.00058189   -0.00111114   -0.00084624
     atom   55 type  4   force =     0.00062421   -0.00001918    0.00036705
     atom   56 type  4   force =     0.00165030   -0.00104050   -0.00148326
     atom   57 type  5   force =    -0.00005204    0.00060647   -0.00054972
     atom   58 type  5   force =    -0.00060950    0.00026146    0.00008090
     atom   59 type  5   force =    -0.00026360   -0.00212961   -0.00165982
     atom   60 type  5   force =     0.00070196    0.00036944   -0.00100499
     atom   61 type  5   force =    -0.00100355   -0.00073336    0.00029209
     atom   62 type  5   force =    -0.00014521    0.00084725    0.00049475
     atom   63 type  5   force =    -0.00003530    0.00132612   -0.00067936
     atom   64 type  5   force =     0.00087081   -0.00019249   -0.00107850
     atom   65 type  5   force =     0.00021564   -0.00048637   -0.00061127
     atom   66 type  5   force =    -0.00094853    0.00039650   -0.00007057
     atom   67 type  5   force =     0.00169260    0.00113840    0.00007775
     atom   68 type  5   force =    -0.00072559   -0.00111940    0.00125821
     atom   69 type  5   force =    -0.00097336    0.00137180   -0.00051085
     atom   70 type  5   force =    -0.00019578   -0.00197122    0.00065363
     atom   71 type  5   force =    -0.00046070   -0.00115999    0.00102390
     atom   72 type  5   force =    -0.00076543    0.00031254    0.00016666
     atom   73 type  5   force =    -0.00028404    0.00013017    0.00050788
     atom   74 type  5   force =     0.00067349   -0.00073163   -0.00031891
     atom   75 type  5   force =     0.00198484    0.00009091    0.00011772
     atom   76 type  5   force =    -0.00081681    0.00030339    0.00070775
     atom   77 type  5   force =     0.00069787   -0.00069513   -0.00059453
     atom   78 type  5   force =     0.00033233    0.00058677    0.00012149
     atom   79 type  5   force =    -0.00080996   -0.00197428    0.00059745
     atom   80 type  5   force =    -0.00119295    0.00088030    0.00035660
     atom   81 type  5   force =     0.00014856   -0.00022725   -0.00109082
     atom   82 type  5   force =    -0.00120327   -0.00141241   -0.00186820
     atom   83 type  5   force =     0.00029407    0.00134898    0.00185868
     atom   84 type  5   force =    -0.00053991    0.00086728    0.00031730
     atom   85 type  5   force =    -0.00004112   -0.00054075    0.00068237
     atom   86 type  5   force =    -0.00027953    0.00086439   -0.00003308
     atom   87 type  5   force =     0.00036270    0.00040722   -0.00057031
     atom   88 type  5   force =    -0.00103715   -0.00018988    0.00128939
     atom   89 type  5   force =     0.00005039    0.00021808    0.00021080
     atom   90 type  5   force =     0.00038923    0.00111069    0.00108696
     atom   91 type  5   force =    -0.00062447   -0.00196081   -0.00035063
     atom   92 type  5   force =     0.00177829    0.00041676   -0.00051916
     atom   93 type  5   force =    -0.00040198   -0.00032464    0.00087636
     atom   94 type  5   force =     0.00078937   -0.00016521   -0.00093416
     atom   95 type  5   force =     0.00058629   -0.00010423   -0.00175101
     atom   96 type  5   force =     0.00032545    0.00143923   -0.00046198

     Total force =     0.016558     Total SCF correction =     0.000464


     Computing stress (Cartesian axis) and pressure

          total   stress  (Ry/bohr**3)                   (kbar)     P=   -0.34
  -0.00000749   0.00000133  -0.00000488         -1.10      0.20     -0.72
   0.00000133   0.00000200   0.00000011          0.20      0.29      0.02
  -0.00000488   0.00000011  -0.00000152         -0.72      0.02     -0.22


     number of scf cycles    =  26
     number of bfgs steps    =  25

     enthalpy old            =  -16707.4727966416 Ry
     enthalpy new            =  -16707.4730723387 Ry

     CASE: enthalpy_new < enthalpy_old

     new trust radius        =       0.0485773092 bohr
     new conv_thr            =       0.0000000276 Ry

     new unit-cell volume =  13982.05443 a.u.^3 (  2071.92667 Ang^3 )
     density =      4.06320 g/cm^3

CELL_PARAMETERS (angstrom)
  12.727407148   0.000000000   0.000000000
   0.000000000  12.849774030   0.000000000
   0.000000000   0.000000000  12.668901332

ATOMIC_POSITIONS (crystal)
Pb      -0.014133908  -0.024188939   0.008550417
Pb       0.484721997  -0.016111419   0.001969924
Pb      -0.018322261   0.480467418   0.009060996
Pb       0.024821043  -0.017884967   0.511529241
Pb       0.483680868   0.482843991  -0.004585072
Pb       0.020971147   0.477352542   0.505274587
Pb       0.526021175  -0.014278008   0.500024919
Pb       0.521535388   0.486186032   0.499243560
I        0.235962395  -0.011333467  -0.042029490
I        0.736511759  -0.005014603   0.045533621
I        0.233586291   0.486615743   0.054148771
I        0.273645328  -0.030289658   0.529192681
I        0.734496080   0.491436046  -0.053678616
I        0.272686896   0.476105352   0.462043778
I        0.772451987  -0.018943766   0.480969662
I        0.773182832   0.466403599   0.541932280
I       -0.031592496   0.232712285   0.011055483
I        0.465638223   0.233107412   0.003504027
I       -0.031052529   0.732278401   0.005118983
I        0.045032197   0.229508806   0.500727742
I        0.465912844   0.733009482  -0.000986823
I        0.027960521   0.727448928   0.511474893
I        0.537644845   0.232896402   0.505109335
I        0.538844952   0.733557345   0.498240409
I        0.033701886  -0.034860510   0.259698868
I        0.467990822  -0.012007589   0.255064105
I       -0.049913361   0.483354393   0.259253327
I       -0.046035646  -0.015244208   0.760228101
I        0.551839269   0.480823453   0.245912412
I        0.049700032   0.476964638   0.758731561
I        0.531621559  -0.024746449   0.755468454
I        0.455292061   0.469799162   0.746783274
C        0.234980784   0.253255054   0.248788584
C        0.763332022   0.254199288   0.276329573
C        0.247244724   0.729412429   0.301278929
C        0.257257555   0.251867215   0.732472685
C        0.748966287   0.787796413   0.251576676
C        0.255130295   0.767455407   0.750198514
C        0.733985538   0.253852107   0.756452237
C        0.759683355   0.753440909   0.735190326
N        0.204114336   0.195640040   0.168998278
N        0.693559002   0.237616595   0.201832618
N        0.167308303   0.681536620   0.257104793
N        0.186133641   0.233449096   0.805244538
N        0.668942610   0.737537835   0.210386703
N        0.184924662   0.724116935   0.812174843
N        0.703051914   0.200941769   0.839408685
N        0.687680729   0.744961621   0.809063059
N        0.315268688   0.232398142   0.310462863
N        0.845455402   0.194957898   0.294968127
N        0.344551816   0.724994150   0.267057351
N        0.337905326   0.191563987   0.711784346
N        0.832751007   0.743712938   0.292183748
N        0.323615832   0.716005733   0.692887213
N        0.814750295   0.229537040   0.696876930
N        0.837880302   0.688076061   0.722057478
H        0.190986424   0.324268035   0.265452142
H        0.752699447   0.322366743   0.326712279
H        0.232001579   0.776867301   0.371366664
H        0.248660027   0.323087296   0.686280565
H        0.746140146   0.872571337   0.252002349
H        0.256374907   0.852193172   0.745078152
H        0.689418049   0.323347180   0.735346639
H        0.754243333   0.819696404   0.681418985
H        0.240872908   0.128282329   0.147924249
H        0.698540442   0.175184225   0.151658486
H        0.175862076   0.631567536   0.194335000
H        0.189174431   0.168981724   0.852664861
H        0.662643765   0.657967570   0.210879219
H        0.174042654   0.645316365   0.815505319
H        0.740791888   0.135737027   0.865515072
H        0.687870772   0.684608188   0.861851694
H        0.140469593   0.217396105   0.124346356
H        0.632570412   0.288830322   0.193618485
H        0.095129823   0.686764936   0.291229787
H        0.126250765   0.285459385   0.815187150
H        0.608374347   0.778036526   0.177476470
H        0.134850616   0.768173203   0.856486151
H        0.639557026   0.225723244   0.882163385
H        0.628737846   0.798907063   0.812356397
H        0.361031440   0.167372341   0.301679545
H        0.862638403   0.129653930   0.252675337
H        0.365438771   0.686495024   0.199619887
H        0.351725444   0.123172149   0.750370440
H        0.846187788   0.665086191   0.290415792
H        0.333443076   0.636959296   0.697990176
H        0.860151245   0.164917703   0.710707853
H        0.847165923   0.623473939   0.767904275
H        0.332153462   0.282157286   0.370957572
H        0.896416022   0.212922626   0.354779687
H        0.401489931   0.765957783   0.305709801
H        0.389722005   0.211712904   0.653371789
H        0.891157282   0.790036510   0.321093555
H        0.374651683   0.755204389   0.644940108
H        0.831976892   0.276472466   0.634229935
H        0.890571645   0.699101028   0.662027088



     Writing output data file FAPbI83_vcrelax10.save/
     NEW-OLD atomic charge density approx. for the potential
     extrapolated charge  431.81745, renormalised to  432.00000

     total cpu time spent up to now is   596551.9 secs

     Self-consistent Calculation

     iteration #  1     ecut=   120.00 Ry     beta= 0.70
     Davidson diagonalization with overlap
     ethr =  1.00E-06,  avg # of iterations =  5.0

     total cpu time spent up to now is   599982.6 secs

     total energy              =  -16707.47284659 Ry
     Harris-Foulkes estimate   =  -16707.76885157 Ry
     estimated scf accuracy    <       0.00137127 Ry

     iteration #  2     ecut=   120.00 Ry     beta= 0.70
     Davidson diagonalization with overlap
     ethr =  3.17E-07,  avg # of iterations =  3.0

     total cpu time spent up to now is   602243.4 secs

     total energy              =  -16707.47320965 Ry
     Harris-Foulkes estimate   =  -16707.47343443 Ry
     estimated scf accuracy    <       0.00048965 Ry

     iteration #  3     ecut=   120.00 Ry     beta= 0.70
     Davidson diagonalization with overlap
     ethr =  1.13E-07,  avg # of iterations =  2.5

     total cpu time spent up to now is   604247.4 secs

     total energy              =  -16707.47333563 Ry
     Harris-Foulkes estimate   =  -16707.47332667 Ry
     estimated scf accuracy    <       0.00004799 Ry

     iteration #  4     ecut=   120.00 Ry     beta= 0.70
     Davidson diagonalization with overlap
