
     Program PWSCF v.6.4 starts on  1Aug2020 at  1:13:39 

     This program is part of the open-source Quantum ESPRESSO suite
     for quantum simulation of materials; please cite
         "P. Giannozzi et al., J. Phys.:Condens. Matter 21 395502 (2009);
         "P. Giannozzi et al., J. Phys.:Condens. Matter 29 465901 (2017);
          URL http://www.quantum-espresso.org", 
     in publications or presentations arising from this work. More details at
     http://www.quantum-espresso.org/quote

     Parallel version (MPI), running on    32 processors

     MPI processes distributed on     1 nodes
     R & G space division:  proc/nbgrp/npool/nimage =      32
     Waiting for input...
     Reading input from standard input

     Current dimensions of program PWSCF are:
     Max number of different atomic species (ntypx) = 10
     Max number of k-points (npk) =  40000
     Max angular momentum in pseudopotentials (lmaxx) =  3
               file Pb.pbe-dn-kjpaw_psl.1.0.0.UPF: wavefunction(s)  6S 6P 5D renormalized
               file I.pbe-n-kjpaw_psl.1.0.0.UPF: wavefunction(s)  5S renormalized
               file C.pbe-n-kjpaw_psl.1.0.0.UPF: wavefunction(s)  2S 2P renormalized
               file N.pbe-n-kjpaw_psl.1.0.0.UPF: wavefunction(s)  2S renormalized
               file H.pbe-kjpaw_psl.1.0.0.UPF: wavefunction(s)  1S renormalized

     --------------------------------------------
     Parameters for DFT-D3 Dispersion Correction:
     --------------------------------------------
       Reference C6 values for interpolation: 

         atom   Coordination number   C6
         H          0.912             6.05
         H          0.000            15.18
         C          0.000            98.23
         C          0.987            86.49
         C          1.998            58.72
         C          2.999            51.56
         C          3.984            36.41
         N          0.000            50.54
         N          0.994            44.25
         N          2.014            39.35
         N          2.990            31.16
         I          0.000           703.93
         I          0.997           717.00
         Pb         0.000          1477.63
         Pb         0.938          1266.00
         Pb         1.936          1088.91
         Pb         2.908          1048.37
         Pb         3.910           910.57

       Values used:

         atom   Coordination number  R0_AB[au]  C6      C8
         Pb         4.809            4.041    910.57 144158.39
         Pb         4.836            4.041    910.57 144158.34
         Pb         4.751            4.041    910.57 144158.56
         Pb         4.801            4.041    910.57 144158.41
         Pb         4.765            4.041    910.57 144158.51
         Pb         4.830            4.041    910.57 144158.35
         Pb         4.871            4.041    910.57 144158.28
         Pb         4.768            4.041    910.57 144158.50
         I          1.968            3.532    717.00  65856.00
         I          1.948            3.532    717.00  65855.99
         I          1.906            3.532    717.00  65855.99
         I          1.962            3.532    717.00  65856.00
         I          1.883            3.532    717.00  65855.99
         I          1.942            3.532    717.00  65855.99
         I          2.000            3.532    717.00  65856.00
         I          1.976            3.532    717.00  65856.00
         I          1.899            3.532    717.00  65855.99
         I          1.969            3.532    717.00  65856.00
         I          1.936            3.532    717.00  65855.99
         I          1.972            3.532    717.00  65856.00
         I          1.913            3.532    717.00  65855.99
         I          1.962            3.532    717.00  65856.00
         I          1.970            3.532    717.00  65856.00
         I          1.934            3.532    717.00  65855.99
         I          1.926            3.532    717.00  65855.99
         I          1.990            3.532    717.00  65856.00
         I          1.950            3.532    717.00  65855.99
         I          1.972            3.532    717.00  65856.00
         I          1.918            3.532    717.00  65855.99
         I          1.929            3.532    717.00  65855.99
         I          1.986            3.532    717.00  65856.00
         I          1.961            3.532    717.00  65856.00
         C          3.066            2.750     51.07   1477.01
         C          3.071            2.750     51.04   1476.19
         C          3.078            2.750     51.01   1475.23
         C          3.073            2.750     51.03   1475.95
         C          3.077            2.750     51.01   1475.31
         C          3.072            2.750     51.04   1476.11
         C          3.070            2.750     51.05   1476.45
         C          3.067            2.750     51.06   1476.88
         N          3.102            2.478     31.23    689.04
         N          3.101            2.478     31.23    689.05
         N          3.102            2.478     31.23    689.04
         N          3.105            2.478     31.23    689.00
         N          3.102            2.478     31.23    689.04
         N          3.100            2.478     31.23    689.06
         N          3.104            2.478     31.23    689.01
         N          3.104            2.478     31.23    689.01
         N          3.104            2.478     31.23    689.01
         N          3.107            2.478     31.23    688.98
         N          3.105            2.478     31.23    689.00
         N          3.106            2.478     31.23    688.99
         N          3.104            2.478     31.23    689.01
         N          3.102            2.478     31.23    689.04
         N          3.104            2.478     31.23    689.01
         N          3.106            2.478     31.23    688.99
         H          1.015            2.062      6.17     74.56
         H          1.018            2.062      6.17     74.53
         H          1.022            2.062      6.16     74.50
         H          1.017            2.062      6.17     74.54
         H          1.024            2.062      6.16     74.47
         H          1.022            2.062      6.16     74.49
         H          1.017            2.062      6.17     74.54
         H          1.016            2.062      6.17     74.56
         H          1.024            2.062      6.16     74.47
         H          1.053            2.062      6.14     74.23
         H          1.054            2.062      6.14     74.22
         H          1.065            2.062      6.13     74.14
         H          1.050            2.062      6.14     74.25
         H          1.037            2.062      6.15     74.36
         H          1.029            2.062      6.16     74.43
         H          1.050            2.062      6.14     74.25
         H          1.074            2.062      6.13     74.08
         H          1.051            2.062      6.14     74.24
         H          1.026            2.062      6.16     74.46
         H          1.050            2.062      6.14     74.25
         H          1.040            2.062      6.15     74.34
         H          1.039            2.062      6.15     74.34
         H          1.065            2.062      6.13     74.14
         H          1.067            2.062      6.13     74.13
         H          1.058            2.062      6.14     74.19
         H          1.027            2.062      6.16     74.45
         H          1.041            2.062      6.15     74.33
         H          1.028            2.062      6.16     74.43
         H          1.053            2.062      6.14     74.23
         H          1.058            2.062      6.14     74.19
         H          1.056            2.062      6.14     74.21
         H          1.026            2.062      6.16     74.46
         H          1.047            2.062      6.14     74.27
         H          1.071            2.062      6.13     74.10
         H          1.059            2.062      6.14     74.18
         H          1.076            2.062      6.13     74.07
         H          1.035            2.062      6.15     74.37
         H          1.037            2.062      6.15     74.36
         H          1.049            2.062      6.14     74.26
         H          1.080            2.062      6.13     74.04

         Molecular C6 ( Ry / a.u.^6 ) =   1270598.53


     Subspace diagonalization in iterative solution of the eigenvalue problem:
     a serial algorithm will be used


     Parallelization info
     --------------------
     sticks:   dense  smooth     PW     G-vecs:    dense   smooth      PW
     Min         694     694    179                77014    77014   10077
     Max         695     695    180                77017    77017   10081
     Sum       22223   22223   5731              2464477  2464477  322555



     bravais-lattice index     =            0
     lattice parameter (alat)  =      23.9433  a.u.
     unit-cell volume          =   13877.8677 (a.u.)^3
     number of atoms/cell      =           96
     number of atomic types    =            5
     number of electrons       =       432.00
     number of Kohn-Sham states=          216
     kinetic-energy cutoff     =     120.0000  Ry
     charge density cutoff     =     480.0000  Ry
     convergence threshold     =      1.0E-07
     mixing beta               =       0.7000
     number of iterations used =            8  plain     mixing
     Exchange-correlation      = SLA PW PBX PBC ( 1  4  3  4 0 0)
     nstep                     =          200


     celldm(1)=  23.943308  celldm(2)=   0.000000  celldm(3)=   0.000000
     celldm(4)=   0.000000  celldm(5)=   0.000000  celldm(6)=   0.000000

     crystal axes: (cart. coord. in units of alat)
               a(1) = (   1.000000   0.000000   0.000000 )  
               a(2) = (   0.000000   1.015207   0.000000 )  
               a(3) = (   0.000000   0.000000   0.995900 )  

     reciprocal axes: (cart. coord. in units 2 pi/alat)
               b(1) = (  1.000000  0.000000  0.000000 )  
               b(2) = (  0.000000  0.985021  0.000000 )  
               b(3) = (  0.000000  0.000000  1.004117 )  


     PseudoPot. # 1 for Pb read from file:
     ../../../Pseudopotential/Pb.pbe-dn-kjpaw_psl.1.0.0.UPF
     MD5 check sum: 684fc8fbce61a260853528575e4d9ab7
     Pseudo is Projector augmented-wave + core cor, Zval = 14.0
     Generated using "atomic" code by A. Dal Corso v.6.3
     Shape of augmentation charge: PSQ
     Using radial grid of 1281 points,  6 beta functions with: 
                l(1) =   0
                l(2) =   0
                l(3) =   1
                l(4) =   1
                l(5) =   2
                l(6) =   2
     Q(r) pseudized with 0 coefficients 


     PseudoPot. # 2 for I  read from file:
     ../../../Pseudopotential/I.pbe-n-kjpaw_psl.1.0.0.UPF
     MD5 check sum: cd3d296c3308a581e1559a0c8a554cb5
     Pseudo is Projector augmented-wave + core cor, Zval =  7.0
     Generated using "atomic" code by A. Dal Corso v.6.3
     Shape of augmentation charge: PSQ
     Using radial grid of 1247 points,  6 beta functions with: 
                l(1) =   0
                l(2) =   0
                l(3) =   1
                l(4) =   1
                l(5) =   2
                l(6) =   2
     Q(r) pseudized with 0 coefficients 


     PseudoPot. # 3 for C  read from file:
     ../../../Pseudopotential/C.pbe-n-kjpaw_psl.1.0.0.UPF
     MD5 check sum: 5f16ad9a65e90284d1d834d4ab3b0f7d
     Pseudo is Projector augmented-wave + core cor, Zval =  4.0
     Generated using "atomic" code by A. Dal Corso v.6.3
     Shape of augmentation charge: PSQ
     Using radial grid of 1073 points,  4 beta functions with: 
                l(1) =   0
                l(2) =   0
                l(3) =   1
                l(4) =   1
     Q(r) pseudized with 0 coefficients 


     PseudoPot. # 4 for N  read from file:
     ../../../Pseudopotential/N.pbe-n-kjpaw_psl.1.0.0.UPF
     MD5 check sum: 14c48229446f9f2d411169a3abcbc3fa
     Pseudo is Projector augmented-wave + core cor, Zval =  5.0
     Generated using "atomic" code by A. Dal Corso v.6.3
     Shape of augmentation charge: PSQ
     Using radial grid of 1085 points,  4 beta functions with: 
                l(1) =   0
                l(2) =   0
                l(3) =   1
                l(4) =   1
     Q(r) pseudized with 0 coefficients 


     PseudoPot. # 5 for H  read from file:
     ../../../Pseudopotential/H.pbe-kjpaw_psl.1.0.0.UPF
     MD5 check sum: d81a744832360e4a8af0b0b5b123bc2a
     Pseudo is Projector augmented-wave, Zval =  1.0
     Generated using "atomic" code by A. Dal Corso v.6.3MaX
     Shape of augmentation charge: PSQ
     Using radial grid of  929 points,  2 beta functions with: 
                l(1) =   0
                l(2) =   0
     Q(r) pseudized with 0 coefficients 


     atomic species   valence    mass     pseudopotential
        Pb            14.00   207.97600     Pb( 1.00)
        I              7.00   126.90400     I ( 1.00)
        C              4.00    12.00000     C ( 1.00)
        N              5.00    14.00300     N ( 1.00)
        H              1.00     1.00700     H ( 1.00)

     No symmetry found



   Cartesian axes

     site n.     atom                  positions (alat units)
         1           Pb  tau(   1) = (  -0.0179192  -0.0257184   0.0098666  )
         2           Pb  tau(   2) = (   0.4791415  -0.0155427   0.0024302  )
         3           Pb  tau(   3) = (  -0.0199191   0.4858346   0.0088739  )
         4           Pb  tau(   4) = (   0.0230664  -0.0145040   0.5097977  )
         5           Pb  tau(   5) = (   0.4817940   0.4902372  -0.0028980  )
         6           Pb  tau(   6) = (   0.0231718   0.4894099   0.5040726  )
         7           Pb  tau(   7) = (   0.5249135  -0.0129424   0.4976746  )
         8           Pb  tau(   8) = (   0.5231345   0.4944925   0.4979115  )
         9           I   tau(   9) = (   0.2322370  -0.0093941  -0.0460381  )
        10           I   tau(  10) = (   0.7330619  -0.0074841   0.0455199  )
        11           I   tau(  11) = (   0.2328399   0.4981624   0.0489468  )
        12           I   tau(  12) = (   0.2742774  -0.0370659   0.5291267  )
        13           I   tau(  13) = (   0.7331459   0.5015321  -0.0542174  )
        14           I   tau(  14) = (   0.2714821   0.4869837   0.4572264  )
        15           I   tau(  15) = (   0.7727520  -0.0221931   0.4731453  )
        16           I   tau(  16) = (   0.7719183   0.4745945   0.5379960  )
        17           I   tau(  17) = (  -0.0301274   0.2363787   0.0067171  )
        18           I   tau(  18) = (   0.4694829   0.2398770   0.0053087  )
        19           I   tau(  19) = (  -0.0305167   0.7434871   0.0079455  )
        20           I   tau(  20) = (   0.0406081   0.2353033   0.5035515  )
        21           I   tau(  21) = (   0.4628216   0.7471726   0.0013460  )
        22           I   tau(  22) = (   0.0306455   0.7410153   0.5105986  )
        23           I   tau(  23) = (   0.5327666   0.2370736   0.5013568  )
        24           I   tau(  24) = (   0.5402003   0.7456736   0.4895605  )
        25           I   tau(  25) = (   0.0344481  -0.0299798   0.2569111  )
        26           I   tau(  26) = (   0.4597378  -0.0066628   0.2519606  )
        27           I   tau(  27) = (  -0.0499643   0.4909952   0.2575858  )
        28           I   tau(  28) = (  -0.0432675  -0.0140302   0.7555129  )
        29           I   tau(  29) = (   0.5512062   0.4866828   0.2445237  )
        30           I   tau(  30) = (   0.0475787   0.4847966   0.7549715  )
        31           I   tau(  31) = (   0.5313435  -0.0248527   0.7507543  )
        32           I   tau(  32) = (   0.4550549   0.4814995   0.7437357  )
        33           C   tau(  33) = (   0.2344957   0.2598874   0.2475463  )
        34           C   tau(  34) = (   0.7634564   0.2580069   0.2740268  )
        35           C   tau(  35) = (   0.2514320   0.7356184   0.3026635  )
        36           C   tau(  36) = (   0.2561538   0.2560262   0.7296862  )
        37           C   tau(  37) = (   0.7484162   0.7933585   0.2510281  )
        38           C   tau(  38) = (   0.2539042   0.7758796   0.7493499  )
        39           C   tau(  39) = (   0.7350357   0.2594857   0.7533211  )
        40           C   tau(  40) = (   0.7592891   0.7663560   0.7327076  )
        41           N   tau(  41) = (   0.2038698   0.1980469   0.1701628  )
        42           N   tau(  42) = (   0.6929295   0.2399970   0.2001436  )
        43           N   tau(  43) = (   0.1705471   0.7023610   0.2464964  )
        44           N   tau(  44) = (   0.1848303   0.2357601   0.8022400  )
        45           N   tau(  45) = (   0.6756944   0.7413345   0.1985074  )
        46           N   tau(  46) = (   0.1922745   0.7280409   0.8179604  )
        47           N   tau(  47) = (   0.7042266   0.2038047   0.8351097  )
        48           N   tau(  48) = (   0.6854348   0.7563360   0.8050559  )
        49           N   tau(  49) = (   0.3160370   0.2420920   0.3092386  )
        50           N   tau(  50) = (   0.8457334   0.1981235   0.2935028  )
        51           N   tau(  51) = (   0.3502466   0.7319105   0.2717934  )
        52           N   tau(  52) = (   0.3370087   0.1950633   0.7076705  )
        53           N   tau(  53) = (   0.8266384   0.7490867   0.3027682  )
        54           N   tau(  54) = (   0.3195719   0.7275788   0.6850312  )
        55           N   tau(  55) = (   0.8164518   0.2366064   0.6935091  )
        56           N   tau(  56) = (   0.8385141   0.7006816   0.7203442  )
        57           H   tau(  57) = (   0.1893361   0.3320369   0.2620338  )
        58           H   tau(  58) = (   0.7527309   0.3283143   0.3229931  )
        59           H   tau(  59) = (   0.2358965   0.7696680   0.3802121  )
        60           H   tau(  60) = (   0.2486918   0.3293952   0.6851606  )
        61           H   tau(  61) = (   0.7440265   0.8792301   0.2514689  )
        62           H   tau(  62) = (   0.2496540   0.8617307   0.7444052  )
        63           H   tau(  63) = (   0.6900922   0.3301930   0.7327081  )
        64           H   tau(  64) = (   0.7551113   0.8343061   0.6796321  )
        65           H   tau(  65) = (   0.2417281   0.1295084   0.1510414  )
        66           H   tau(  66) = (   0.6963088   0.1756051   0.1511777  )
        67           H   tau(  67) = (   0.1795037   0.6607436   0.1776170  )
        68           H   tau(  68) = (   0.1876464   0.1686822   0.8477288  )
        69           H   tau(  69) = (   0.6699793   0.6607063   0.2005922  )
        70           H   tau(  70) = (   0.1862373   0.6476508   0.8223666  )
        71           H   tau(  71) = (   0.7412521   0.1361330   0.8588643  )
        72           H   tau(  72) = (   0.6847972   0.6943400   0.8571655  )
        73           H   tau(  73) = (   0.1395677   0.2171489   0.1244641  )
        74           H   tau(  74) = (   0.6313979   0.2914500   0.1911241  )
        75           H   tau(  75) = (   0.0968027   0.7074364   0.2774907  )
        76           H   tau(  76) = (   0.1241546   0.2879008   0.8122691  )
        77           H   tau(  77) = (   0.6190083   0.7804448   0.1564156  )
        78           H   tau(  78) = (   0.1427837   0.7703821   0.8656487  )
        79           H   tau(  79) = (   0.6394597   0.2269357   0.8776850  )
        80           H   tau(  80) = (   0.6258307   0.8106650   0.8081807  )
        81           H   tau(  81) = (   0.3637704   0.1772901   0.3000339  )
        82           H   tau(  82) = (   0.8611431   0.1304083   0.2524422  )
        83           H   tau(  83) = (   0.3715412   0.7058478   0.1984820  )
        84           H   tau(  84) = (   0.3507373   0.1258367   0.7464311  )
        85           H   tau(  85) = (   0.8398943   0.6692788   0.3015430  )
        86           H   tau(  86) = (   0.3345713   0.6482205   0.6901803  )
        87           H   tau(  87) = (   0.8622227   0.1710515   0.7070178  )
        88           H   tau(  88) = (   0.8471184   0.6354843   0.7669416  )
        89           H   tau(  89) = (   0.3337802   0.2944522   0.3681064  )
        90           H   tau(  90) = (   0.8966875   0.2174134   0.3535332  )
        91           H   tau(  91) = (   0.4085659   0.7559444   0.3223161  )
        92           H   tau(  92) = (   0.3901266   0.2174701   0.6507539  )
        93           H   tau(  93) = (   0.8776894   0.7950276   0.3450640  )
        94           H   tau(  94) = (   0.3645495   0.7700670   0.6331605  )
        95           H   tau(  95) = (   0.8339237   0.2857530   0.6319619  )
        96           H   tau(  96) = (   0.8934354   0.7141376   0.6623590  )

     number of k points=    32
                       cart. coord. in units 2pi/alat
        k(    1) = (   0.1250000   0.1231276   0.1255146), wk =   0.0625000
        k(    2) = (   0.1250000   0.1231276   0.3765438), wk =   0.0625000
        k(    3) = (   0.1250000   0.3693829   0.1255146), wk =   0.0625000
        k(    4) = (   0.1250000   0.3693829   0.3765438), wk =   0.0625000
        k(    5) = (   0.3750000   0.1231276   0.1255146), wk =   0.0625000
        k(    6) = (   0.3750000   0.1231276   0.3765438), wk =   0.0625000
        k(    7) = (   0.3750000   0.3693829   0.1255146), wk =   0.0625000
        k(    8) = (   0.3750000   0.3693829   0.3765438), wk =   0.0625000
        k(    9) = (  -0.1250000  -0.1231276   0.1255146), wk =   0.0625000
        k(   10) = (  -0.1250000   0.1231276  -0.1255146), wk =   0.0625000
        k(   11) = (   0.1250000  -0.1231276  -0.1255146), wk =   0.0625000
        k(   12) = (  -0.1250000  -0.1231276   0.3765438), wk =   0.0625000
        k(   13) = (  -0.1250000   0.1231276  -0.3765438), wk =   0.0625000
        k(   14) = (   0.1250000  -0.1231276  -0.3765438), wk =   0.0625000
        k(   15) = (  -0.1250000  -0.3693829   0.1255146), wk =   0.0625000
        k(   16) = (  -0.1250000   0.3693829  -0.1255146), wk =   0.0625000
        k(   17) = (   0.1250000  -0.3693829  -0.1255146), wk =   0.0625000
        k(   18) = (  -0.1250000  -0.3693829   0.3765438), wk =   0.0625000
        k(   19) = (  -0.1250000   0.3693829  -0.3765438), wk =   0.0625000
        k(   20) = (   0.1250000  -0.3693829  -0.3765438), wk =   0.0625000
        k(   21) = (  -0.3750000  -0.1231276   0.1255146), wk =   0.0625000
        k(   22) = (  -0.3750000   0.1231276  -0.1255146), wk =   0.0625000
        k(   23) = (   0.3750000  -0.1231276  -0.1255146), wk =   0.0625000
        k(   24) = (  -0.3750000  -0.1231276   0.3765438), wk =   0.0625000
        k(   25) = (  -0.3750000   0.1231276  -0.3765438), wk =   0.0625000
        k(   26) = (   0.3750000  -0.1231276  -0.3765438), wk =   0.0625000
        k(   27) = (  -0.3750000  -0.3693829   0.1255146), wk =   0.0625000
        k(   28) = (  -0.3750000   0.3693829  -0.1255146), wk =   0.0625000
        k(   29) = (   0.3750000  -0.3693829  -0.1255146), wk =   0.0625000
        k(   30) = (  -0.3750000  -0.3693829   0.3765438), wk =   0.0625000
        k(   31) = (  -0.3750000   0.3693829  -0.3765438), wk =   0.0625000
        k(   32) = (   0.3750000  -0.3693829  -0.3765438), wk =   0.0625000

     Dense  grid:  2464477 G-vectors     FFT dimensions: ( 180, 180, 180)

     Estimated max dynamical RAM per process >       1.81 GB

     Estimated total dynamical RAM >      57.78 GB

     Initial potential from superposition of free atoms

     starting charge  431.97851, renormalised to  432.00000
     Starting wfcs are  304 randomized atomic wfcs
     Checking if some PAW data can be deallocated... 

     total cpu time spent up to now is     1510.5 secs

     Self-consistent Calculation

     iteration #  1     ecut=   120.00 Ry     beta= 0.70
     Davidson diagonalization with overlap
     ethr =  1.00E-02,  avg # of iterations =  2.0

     total cpu time spent up to now is     4337.8 secs

     total energy              =  -16705.03094488 Ry
     Harris-Foulkes estimate   =  -16709.28350983 Ry
     estimated scf accuracy    <       6.73066322 Ry

     iteration #  2     ecut=   120.00 Ry     beta= 0.70
     Davidson diagonalization with overlap
     ethr =  1.56E-03,  avg # of iterations =  4.0

     total cpu time spent up to now is     8322.0 secs

     total energy              =  -16706.55986010 Ry
     Harris-Foulkes estimate   =  -16708.65163762 Ry
     estimated scf accuracy    <       3.90191211 Ry

     iteration #  3     ecut=   120.00 Ry     beta= 0.70
     Davidson diagonalization with overlap
     ethr =  9.03E-04,  avg # of iterations =  3.0

     total cpu time spent up to now is    11535.5 secs

     total energy              =  -16707.42530506 Ry
     Harris-Foulkes estimate   =  -16707.49310559 Ry
     estimated scf accuracy    <       0.14715680 Ry

     iteration #  4     ecut=   120.00 Ry     beta= 0.70
     Davidson diagonalization with overlap
     ethr =  3.41E-05,  avg # of iterations =  4.0

     total cpu time spent up to now is    15809.4 secs

     total energy              =  -16707.46936354 Ry
     Harris-Foulkes estimate   =  -16707.48893683 Ry
     estimated scf accuracy    <       0.03893558 Ry

     iteration #  5     ecut=   120.00 Ry     beta= 0.70
     Davidson diagonalization with overlap
     ethr =  9.01E-06,  avg # of iterations =  3.0

     total cpu time spent up to now is    19324.1 secs

     total energy              =  -16707.47671337 Ry
     Harris-Foulkes estimate   =  -16707.47805780 Ry
     estimated scf accuracy    <       0.00248189 Ry

     iteration #  6     ecut=   120.00 Ry     beta= 0.70
     Davidson diagonalization with overlap
     ethr =  5.75E-07,  avg # of iterations =  4.0

     total cpu time spent up to now is    23177.1 secs

     total energy              =  -16707.47740703 Ry
     Harris-Foulkes estimate   =  -16707.47799397 Ry
     estimated scf accuracy    <       0.00132211 Ry

     iteration #  7     ecut=   120.00 Ry     beta= 0.70
     Davidson diagonalization with overlap
     ethr =  3.06E-07,  avg # of iterations =  4.0

     total cpu time spent up to now is    26126.6 secs

     total energy              =  -16707.47768662 Ry
     Harris-Foulkes estimate   =  -16707.47772308 Ry
     estimated scf accuracy    <       0.00008393 Ry

     iteration #  8     ecut=   120.00 Ry     beta= 0.70
     Davidson diagonalization with overlap
     ethr =  1.94E-08,  avg # of iterations =  4.0

     total cpu time spent up to now is    29446.9 secs

     total energy              =  -16707.47770910 Ry
     Harris-Foulkes estimate   =  -16707.47771740 Ry
     estimated scf accuracy    <       0.00001809 Ry

     iteration #  9     ecut=   120.00 Ry     beta= 0.70
     Davidson diagonalization with overlap
     ethr =  4.19E-09,  avg # of iterations =  4.0

     total cpu time spent up to now is    32573.0 secs

     total energy              =  -16707.47771304 Ry
     Harris-Foulkes estimate   =  -16707.47771387 Ry
     estimated scf accuracy    <       0.00000175 Ry

     iteration # 10     ecut=   120.00 Ry     beta= 0.70
     Davidson diagonalization with overlap
     ethr =  4.04E-10,  avg # of iterations =  4.0

     total cpu time spent up to now is    35938.1 secs

     total energy              =  -16707.47771348 Ry
     Harris-Foulkes estimate   =  -16707.47771360 Ry
     estimated scf accuracy    <       0.00000025 Ry

     iteration # 11     ecut=   120.00 Ry     beta= 0.70
     Davidson diagonalization with overlap
     ethr =  5.89E-11,  avg # of iterations =  4.0

     total cpu time spent up to now is    39174.8 secs

     End of self-consistent calculation

          k = 0.1250 0.1231 0.1255 (308129 PWs)   bands (ev):

   -17.8635 -17.7947 -17.7935 -17.7805 -17.7696 -17.7619 -17.7556 -17.7526
   -15.6357 -15.5829 -15.5794 -15.5441 -15.5385 -15.5309 -15.5284 -15.5086
   -14.2612 -14.2537 -14.2267 -14.2265 -14.2244 -14.2194 -14.2162 -14.2134
   -14.2132 -14.2075 -14.2024 -14.2009 -14.1958 -14.1907 -14.1893 -14.1869
   -14.1848 -14.1831 -14.1813 -14.1802 -14.1777 -14.1753 -14.1745 -14.1728
   -14.1686 -14.1633 -14.1624 -14.1596 -14.1582 -14.1571 -14.1556 -14.1518
   -14.1428 -14.1394 -14.1386 -14.1297 -14.1207 -14.1203 -14.1072 -14.1038
    -9.7477  -9.7075  -9.6574  -9.6070  -9.5828  -9.5451  -9.5322  -9.5030
    -9.4394  -9.3963  -9.3500  -9.3364  -9.2746  -9.2516  -9.2137  -9.1902
    -9.1667  -9.1417  -9.1269  -9.1115  -9.0918  -9.0708  -9.0459  -9.0355
    -9.0114  -9.0008  -8.9592  -8.9419  -8.9224  -8.8949  -8.8702  -8.7993
    -7.6924  -7.6448  -7.6157  -7.6038  -7.5916  -7.5842  -7.5632  -7.5594
    -7.0110  -6.9625  -6.9405  -6.9385  -6.9228  -6.9145  -6.9086  -6.8743
    -5.8309  -5.4199  -5.3853  -5.3681  -5.3589  -5.3073  -5.2914  -5.2553
    -5.2520  -5.2394  -5.2361  -5.2242  -4.9815  -4.9366  -4.9237  -4.5284
    -3.8255  -3.7760  -3.7554  -3.7397  -3.7199  -3.7147  -3.7139  -3.6935
    -3.2524  -3.2111  -3.1937  -3.1917  -3.1861  -3.1733  -3.1653  -3.1563
    -0.8149  -0.7873  -0.7673  -0.7352  -0.6972  -0.6844  -0.6522  -0.5912
    -0.5871  -0.5598  -0.4981  -0.4763  -0.1371  -0.0888  -0.0465  -0.0239
    -0.0036   0.0132   0.0480   0.0662   0.4506   0.4692   0.5061   0.5127
     0.5374   0.5492   0.5725   0.6101   0.6306   0.6898   0.7281   0.7816
     0.8261   0.8518   0.8661   0.9216   0.9431   0.9715   0.9823   1.0301
     1.0345   1.0516   1.0584   1.0893   1.0982   1.1224   1.1392   1.1482
     1.1539   1.1809   1.1930   1.2110   1.2353   1.2539   1.2614   1.2884
     1.2932   1.3051   1.3245   1.3445   1.3680   1.3820   1.3980   1.4549
     1.4835   1.5005   1.5118   1.5326   1.5758   1.5790   1.6379   1.6540
     1.6944   1.7455   1.7648   1.8167   1.8511   1.9064   1.9332   2.1730

          k = 0.1250 0.1231 0.3765 (308067 PWs)   bands (ev):

   -17.8635 -17.7946 -17.7937 -17.7805 -17.7695 -17.7619 -17.7556 -17.7526
   -15.6357 -15.5828 -15.5795 -15.5439 -15.5382 -15.5312 -15.5286 -15.5086
   -14.2612 -14.2535 -14.2265 -14.2264 -14.2240 -14.2194 -14.2157 -14.2132
   -14.2123 -14.2086 -14.2026 -14.2015 -14.1960 -14.1907 -14.1893 -14.1869
   -14.1848 -14.1822 -14.1813 -14.1802 -14.1777 -14.1753 -14.1752 -14.1728
   -14.1686 -14.1633 -14.1624 -14.1596 -14.1582 -14.1572 -14.1560 -14.1518
   -14.1428 -14.1394 -14.1386 -14.1297 -14.1207 -14.1203 -14.1072 -14.1038
    -9.7266  -9.7008  -9.6644  -9.5949  -9.5874  -9.5698  -9.5420  -9.5312
    -9.4324  -9.3733  -9.3447  -9.3174  -9.2942  -9.2635  -9.2432  -9.1957
    -9.1738  -9.1536  -9.1148  -9.0948  -9.0665  -9.0458  -9.0404  -9.0243
    -9.0058  -8.9969  -8.9774  -8.9430  -8.9179  -8.9087  -8.8749  -8.8059
    -7.6922  -7.6449  -7.6165  -7.6030  -7.5911  -7.5837  -7.5645  -7.5597
    -7.0110  -6.9622  -6.9407  -6.9388  -6.9226  -6.9146  -6.9087  -6.8742
    -5.7115  -5.5300  -5.3791  -5.3111  -5.3011  -5.2933  -5.2664  -5.2513
    -5.2476  -5.2379  -5.2339  -5.2100  -5.0966  -5.0672  -4.8443  -4.6654
    -3.8251  -3.7715  -3.7601  -3.7391  -3.7193  -3.7153  -3.7134  -3.6947
    -3.2523  -3.2109  -3.1936  -3.1918  -3.1860  -3.1729  -3.1662  -3.1562
    -0.7971  -0.7730  -0.7317  -0.6786  -0.6414  -0.6254  -0.5875  -0.5546
    -0.3380  -0.2957  -0.2339  -0.1561  -0.1121  -0.0920  -0.0373  -0.0159
     0.0065   0.0127   0.0393   0.0556   0.2194   0.2895   0.3474   0.4156
     0.4794   0.5043   0.5225   0.5546   0.5676   0.5857   0.6284   0.6464
     0.6881   0.7640   0.8563   0.8778   0.9259   0.9388   0.9506   0.9928
     1.0155   1.0338   1.0600   1.0801   1.1045   1.1167   1.1350   1.1478
     1.1643   1.1852   1.2081   1.2297   1.2469   1.2665   1.2758   1.2804
     1.3010   1.3151   1.3463   1.3657   1.3869   1.4000   1.4233   1.4267
     1.4511   1.4768   1.4963   1.5223   1.5589   1.5809   1.5988   1.6279
     1.6674   1.7115   1.7287   1.7490   1.7600   1.8062   1.8859   2.0123

          k = 0.1250 0.3694 0.1255 (308001 PWs)   bands (ev):

   -17.8635 -17.7947 -17.7935 -17.7805 -17.7696 -17.7619 -17.7556 -17.7526
   -15.6357 -15.5829 -15.5794 -15.5441 -15.5385 -15.5309 -15.5284 -15.5086
   -14.2608 -14.2535 -14.2266 -14.2265 -14.2248 -14.2194 -14.2161 -14.2134
   -14.2132 -14.2073 -14.2023 -14.1997 -14.1965 -14.1907 -14.1893 -14.1869
   -14.1848 -14.1838 -14.1813 -14.1802 -14.1777 -14.1753 -14.1748 -14.1728
   -14.1686 -14.1633 -14.1624 -14.1596 -14.1582 -14.1573 -14.1557 -14.1518
   -14.1428 -14.1395 -14.1386 -14.1297 -14.1207 -14.1203 -14.1072 -14.1038
    -9.7370  -9.7152  -9.6568  -9.6074  -9.5800  -9.5468  -9.5348  -9.5038
    -9.4199  -9.3786  -9.3532  -9.3399  -9.3128  -9.2759  -9.2579  -9.1996
    -9.1649  -9.1364  -9.1071  -9.0945  -9.0680  -9.0458  -9.0251  -9.0201
    -9.0127  -8.9919  -8.9694  -8.9591  -8.9301  -8.8956  -8.8807  -8.8055
    -7.6915  -7.6449  -7.6104  -7.6031  -7.5961  -7.5846  -7.5636  -7.5598
    -7.0108  -6.9619  -6.9409  -6.9381  -6.9231  -6.9145  -6.9088  -6.8745
    -5.7124  -5.5272  -5.3812  -5.3156  -5.2997  -5.2917  -5.2696  -5.2588
    -5.2454  -5.2379  -5.2307  -5.2103  -5.0960  -5.0596  -4.8478  -4.6694
    -3.8244  -3.7741  -3.7538  -3.7422  -3.7199  -3.7162  -3.7130  -3.6943
    -3.2521  -3.2096  -3.1957  -3.1917  -3.1854  -3.1737  -3.1657  -3.1567
    -0.7906  -0.7463  -0.7052  -0.6965  -0.6067  -0.5835  -0.5427  -0.5153
    -0.3547  -0.3317  -0.2604  -0.1786  -0.1269  -0.0777  -0.0525  -0.0187
    -0.0106   0.0053   0.0411   0.0634   0.2330   0.3005   0.3574   0.4125
     0.4747   0.5076   0.5207   0.5523   0.5669   0.5865   0.5971   0.6377
     0.6962   0.7279   0.8075   0.8310   0.8820   0.8969   0.9755   0.9926
     1.0177   1.0378   1.0684   1.0821   1.0945   1.1133   1.1297   1.1531
     1.1696   1.1776   1.2052   1.2265   1.2433   1.2573   1.2871   1.3054
     1.3225   1.3427   1.3469   1.3619   1.3793   1.4039   1.4122   1.4463
     1.4655   1.4870   1.5031   1.5101   1.5509   1.5887   1.6053   1.6211
     1.6273   1.6640   1.7053   1.7314   1.7627   1.8401   1.9196   2.0081

          k = 0.1250 0.3694 0.3765 (308021 PWs)   bands (ev):

   -17.8635 -17.7946 -17.7937 -17.7805 -17.7695 -17.7619 -17.7556 -17.7526
   -15.6357 -15.5828 -15.5795 -15.5439 -15.5382 -15.5312 -15.5286 -15.5086
   -14.2608 -14.2534 -14.2266 -14.2262 -14.2244 -14.2194 -14.2157 -14.2132
   -14.2123 -14.2084 -14.2025 -14.2004 -14.1965 -14.1908 -14.1893 -14.1869
   -14.1848 -14.1828 -14.1813 -14.1801 -14.1777 -14.1755 -14.1753 -14.1728
   -14.1686 -14.1633 -14.1624 -14.1596 -14.1582 -14.1574 -14.1560 -14.1518
   -14.1428 -14.1395 -14.1386 -14.1297 -14.1207 -14.1203 -14.1072 -14.1038
    -9.7210  -9.7002  -9.6649  -9.5936  -9.5885  -9.5717  -9.5405  -9.5324
    -9.4168  -9.3589  -9.3488  -9.3303  -9.3118  -9.2903  -9.2611  -9.2151
    -9.1984  -9.1109  -9.0895  -9.0711  -9.0612  -9.0462  -9.0277  -9.0138
    -9.0078  -8.9927  -8.9859  -8.9461  -8.9240  -8.9083  -8.8859  -8.8114
    -7.6912  -7.6449  -7.6113  -7.6025  -7.5953  -7.5840  -7.5650  -7.5602
    -7.0108  -6.9619  -6.9411  -6.9382  -6.9229  -6.9145  -6.9089  -6.8745
    -5.5976  -5.4419  -5.3938  -5.3776  -5.3049  -5.2989  -5.2835  -5.2527
    -5.2420  -5.2365  -5.2194  -5.1825  -5.1579  -5.0040  -4.9621  -4.8038
    -3.8239  -3.7697  -3.7582  -3.7411  -3.7205  -3.7154  -3.7134  -3.6947
    -3.2521  -3.2096  -3.1950  -3.1925  -3.1856  -3.1731  -3.1666  -3.1568
    -0.7686  -0.6857  -0.6288  -0.5910  -0.3847  -0.3660  -0.3261  -0.3011
    -0.2654  -0.2286  -0.1897  -0.1819  -0.1059  -0.0840  -0.0482  -0.0198
    -0.0019   0.0163   0.0387   0.0533   0.1814   0.2531   0.2821   0.3106
     0.3429   0.3687   0.3877   0.4443   0.5314   0.5496   0.5704   0.5959
     0.6342   0.7058   0.7717   0.7845   0.8340   0.8617   0.8812   0.9097
     0.9216   0.9788   1.0163   1.0442   1.0530   1.0709   1.1012   1.1259
     1.1700   1.1829   1.2022   1.2219   1.2554   1.2821   1.2980   1.3135
     1.3282   1.3402   1.3685   1.3832   1.3943   1.4090   1.4252   1.4438
     1.4567   1.4861   1.4987   1.5140   1.5285   1.5582   1.5767   1.5903
     1.6221   1.6478   1.6753   1.7017   1.7359   1.7526   1.7753   1.8798

          k = 0.3750 0.1231 0.1255 (308081 PWs)   bands (ev):

   -17.8634 -17.7947 -17.7935 -17.7805 -17.7696 -17.7618 -17.7556 -17.7526
   -15.6352 -15.5833 -15.5794 -15.5440 -15.5384 -15.5309 -15.5286 -15.5086
   -14.2610 -14.2536 -14.2267 -14.2265 -14.2243 -14.2194 -14.2149 -14.2132
   -14.2131 -14.2077 -14.2031 -14.2011 -14.1961 -14.1913 -14.1893 -14.1869
   -14.1848 -14.1831 -14.1813 -14.1802 -14.1777 -14.1753 -14.1744 -14.1728
   -14.1686 -14.1633 -14.1624 -14.1596 -14.1582 -14.1571 -14.1548 -14.1518
   -14.1428 -14.1404 -14.1386 -14.1297 -14.1207 -14.1203 -14.1072 -14.1038
    -9.7249  -9.6922  -9.6607  -9.6436  -9.5816  -9.5500  -9.5318  -9.5077
    -9.4442  -9.4027  -9.3452  -9.3167  -9.2979  -9.2693  -9.2186  -9.1698
    -9.1660  -9.1359  -9.1238  -9.1075  -9.0995  -9.0840  -9.0351  -9.0158
    -9.0025  -8.9749  -8.9655  -8.9414  -8.9257  -8.9129  -8.8567  -8.8219
    -7.6911  -7.6468  -7.6157  -7.6033  -7.5917  -7.5845  -7.5642  -7.5594
    -7.0105  -6.9624  -6.9405  -6.9386  -6.9225  -6.9153  -6.9075  -6.8746
    -5.7123  -5.5303  -5.3753  -5.3127  -5.3087  -5.2901  -5.2606  -5.2555
    -5.2461  -5.2341  -5.2273  -5.2189  -5.1059  -5.0647  -4.8347  -4.6663
    -3.8252  -3.7759  -3.7545  -3.7391  -3.7204  -3.7156  -3.7137  -3.6945
    -3.2526  -3.2081  -3.1922  -3.1895  -3.1837  -3.1761  -3.1703  -3.1581
    -0.7800  -0.7575  -0.7353  -0.6970  -0.6721  -0.6123  -0.6042  -0.5666
    -0.3727  -0.3127  -0.1900  -0.1292  -0.1150  -0.0792  -0.0531  -0.0223
     0.0047   0.0292   0.0380   0.0537   0.1868   0.2638   0.3721   0.4345
     0.4990   0.5229   0.5401   0.5573   0.5701   0.5924   0.6165   0.6557
     0.7099   0.7399   0.8408   0.8858   0.9075   0.9272   0.9539   1.0013
     1.0189   1.0421   1.0561   1.0862   1.0996   1.1193   1.1288   1.1512
     1.1606   1.1846   1.2087   1.2289   1.2530   1.2602   1.2694   1.2890
     1.3068   1.3249   1.3347   1.3601   1.3727   1.3920   1.4206   1.4452
     1.4748   1.4885   1.5095   1.5423   1.5625   1.5705   1.6050   1.6370
     1.6780   1.6955   1.7106   1.7292   1.7643   1.7895   1.9018   1.9792

          k = 0.3750 0.1231 0.3765 (308017 PWs)   bands (ev):

   -17.8634 -17.7946 -17.7937 -17.7805 -17.7695 -17.7619 -17.7556 -17.7526
   -15.6352 -15.5833 -15.5794 -15.5438 -15.5381 -15.5312 -15.5288 -15.5086
   -14.2610 -14.2534 -14.2265 -14.2264 -14.2240 -14.2194 -14.2144 -14.2132
   -14.2118 -14.2086 -14.2037 -14.2016 -14.1963 -14.1913 -14.1893 -14.1869
   -14.1847 -14.1822 -14.1813 -14.1802 -14.1777 -14.1753 -14.1752 -14.1728
   -14.1686 -14.1633 -14.1624 -14.1596 -14.1582 -14.1572 -14.1551 -14.1518
   -14.1428 -14.1404 -14.1386 -14.1297 -14.1207 -14.1203 -14.1072 -14.1038
    -9.7120  -9.6832  -9.6560  -9.6210  -9.5913  -9.5704  -9.5547  -9.5437
    -9.4226  -9.3771  -9.3509  -9.3227  -9.2950  -9.2742  -9.2435  -9.2122
    -9.1586  -9.1372  -9.1093  -9.0945  -9.0631  -9.0519  -9.0366  -9.0180
    -8.9914  -8.9863  -8.9739  -8.9432  -8.9314  -8.9045  -8.8653  -8.8298
    -7.6911  -7.6452  -7.6164  -7.6027  -7.5909  -7.5856  -7.5659  -7.5604
    -7.0105  -6.9621  -6.9404  -6.9388  -6.9223  -6.9155  -6.9075  -6.8746
    -5.5971  -5.4349  -5.4049  -5.3727  -5.3095  -5.3001  -5.2591  -5.2526
    -5.2474  -5.2398  -5.2281  -5.2089  -5.1428  -4.9914  -4.9581  -4.8025
    -3.8248  -3.7707  -3.7590  -3.7384  -3.7193  -3.7159  -3.7150  -3.6960
    -3.2525  -3.2079  -3.1922  -3.1893  -3.1832  -3.1763  -3.1708  -3.1578
    -0.7580  -0.7448  -0.6763  -0.6513  -0.4354  -0.3850  -0.3478  -0.2933
    -0.2736  -0.2207  -0.1587  -0.1227  -0.1016  -0.0786  -0.0473  -0.0074
     0.0112   0.0229   0.0470   0.0513   0.1628   0.2098   0.2738   0.3142
     0.3604   0.3948   0.4231   0.4627   0.5111   0.5208   0.5581   0.5786
     0.6965   0.7547   0.8131   0.8328   0.8436   0.8811   0.9218   0.9498
     0.9657   0.9885   1.0264   1.0470   1.0706   1.0969   1.1087   1.1394
     1.1641   1.1750   1.1919   1.2226   1.2248   1.2476   1.2684   1.2812
     1.3210   1.3276   1.3416   1.3712   1.3796   1.3999   1.4127   1.4398
     1.4567   1.4740   1.5021   1.5307   1.5456   1.5624   1.5722   1.6044
     1.6418   1.6521   1.6850   1.7108   1.7356   1.7646   1.7978   1.8332

          k = 0.3750 0.3694 0.1255 (308106 PWs)   bands (ev):

   -17.8634 -17.7947 -17.7935 -17.7805 -17.7696 -17.7619 -17.7556 -17.7526
   -15.6352 -15.5833 -15.5794 -15.5440 -15.5384 -15.5309 -15.5286 -15.5086
   -14.2607 -14.2535 -14.2266 -14.2264 -14.2247 -14.2194 -14.2148 -14.2132
   -14.2131 -14.2074 -14.2031 -14.1998 -14.1967 -14.1913 -14.1893 -14.1869
   -14.1847 -14.1838 -14.1813 -14.1802 -14.1777 -14.1753 -14.1748 -14.1728
   -14.1686 -14.1633 -14.1624 -14.1596 -14.1582 -14.1573 -14.1548 -14.1518
   -14.1428 -14.1404 -14.1386 -14.1297 -14.1207 -14.1203 -14.1072 -14.1038
    -9.7200  -9.6924  -9.6620  -9.6400  -9.5815  -9.5526  -9.5326  -9.5076
    -9.4250  -9.3871  -9.3619  -9.3463  -9.3034  -9.2752  -9.2585  -9.1874
    -9.1527  -9.1384  -9.1176  -9.0915  -9.0718  -9.0466  -9.0302  -9.0137
    -8.9961  -8.9784  -8.9647  -8.9562  -8.9322  -8.9128  -8.8632  -8.8267
    -7.6903  -7.6469  -7.6104  -7.6027  -7.5963  -7.5849  -7.5644  -7.5598
    -7.0103  -6.9618  -6.9409  -6.9382  -6.9227  -6.9153  -6.9081  -6.8745
    -5.5991  -5.4317  -5.4070  -5.3718  -5.3130  -5.2997  -5.2792  -5.2485
    -5.2421  -5.2370  -5.2283  -5.1916  -5.1463  -4.9870  -4.9685  -4.8058
    -3.8246  -3.7743  -3.7539  -3.7409  -3.7198  -3.7156  -3.7138  -3.6949
    -3.2525  -3.2078  -3.1938  -3.1895  -3.1826  -3.1766  -3.1703  -3.1584
    -0.7205  -0.6809  -0.6288  -0.6052  -0.4879  -0.4045  -0.3788  -0.3182
    -0.2380  -0.2007  -0.1482  -0.1226  -0.1062  -0.0703  -0.0349  -0.0187
    -0.0078   0.0090   0.0371   0.0463   0.0999   0.2265   0.2673   0.2853
     0.3721   0.4005   0.4603   0.5127   0.5268   0.5354   0.5799   0.6037
     0.6336   0.7365   0.7610   0.7733   0.8290   0.8745   0.8868   0.9146
     0.9385   0.9563   0.9971   1.0280   1.0580   1.0935   1.1223   1.1382
     1.1508   1.1724   1.1899   1.2128   1.2323   1.2815   1.2881   1.3123
     1.3334   1.3413   1.3539   1.3689   1.3964   1.4108   1.4346   1.4502
     1.4680   1.4823   1.5091   1.5224   1.5448   1.5737   1.5864   1.6104
     1.6321   1.6504   1.6638   1.7019   1.7291   1.7405   1.7849   1.8018

          k = 0.3750 0.3694 0.3765 (308045 PWs)   bands (ev):

   -17.8634 -17.7946 -17.7937 -17.7805 -17.7695 -17.7619 -17.7556 -17.7526
   -15.6352 -15.5833 -15.5794 -15.5438 -15.5381 -15.5312 -15.5288 -15.5086
   -14.2607 -14.2533 -14.2266 -14.2261 -14.2244 -14.2194 -14.2144 -14.2132
   -14.2118 -14.2084 -14.2037 -14.2004 -14.1968 -14.1914 -14.1893 -14.1869
   -14.1847 -14.1828 -14.1813 -14.1802 -14.1777 -14.1755 -14.1753 -14.1728
   -14.1686 -14.1633 -14.1624 -14.1596 -14.1582 -14.1574 -14.1551 -14.1518
   -14.1428 -14.1405 -14.1386 -14.1297 -14.1207 -14.1203 -14.1072 -14.1038
    -9.7106  -9.6780  -9.6576  -9.6200  -9.5899  -9.5715  -9.5546  -9.5420
    -9.4089  -9.3670  -9.3479  -9.3308  -9.3097  -9.2955  -9.2908  -9.2330
    -9.1468  -9.1109  -9.0891  -9.0618  -9.0590  -9.0463  -9.0379  -9.0136
    -8.9999  -8.9852  -8.9660  -8.9497  -8.9373  -8.9108  -8.8709  -8.8327
    -7.6902  -7.6453  -7.6113  -7.6020  -7.5952  -7.5861  -7.5659  -7.5607
    -7.0103  -6.9617  -6.9409  -6.9383  -6.9225  -6.9155  -6.9081  -6.8745
    -5.4891  -5.3758  -5.3451  -5.3193  -5.3103  -5.2984  -5.2692  -5.2564
    -5.2449  -5.2368  -5.2359  -5.2130  -5.1397  -5.1016  -5.0869  -4.9389
    -3.8241  -3.7695  -3.7580  -3.7400  -3.7190  -3.7157  -3.7151  -3.6961
    -3.2525  -3.2077  -3.1937  -3.1892  -3.1827  -3.1763  -3.1709  -3.1583
    -0.5004  -0.4647  -0.4012  -0.3837  -0.3375  -0.3092  -0.2662  -0.2551
    -0.2320  -0.1848  -0.1526  -0.1175  -0.0975  -0.0734  -0.0394  -0.0139
     0.0006   0.0207   0.0297   0.0477   0.1007   0.1965   0.2223   0.2334
     0.2982   0.3177   0.3376   0.3748   0.4040   0.4466   0.4731   0.5148
     0.6889   0.7525   0.7967   0.8055   0.8369   0.8641   0.8729   0.8982
     0.9041   0.9355   0.9500   0.9767   0.9988   1.0273   1.0460   1.0777
     1.1152   1.1193   1.1414   1.1579   1.1673   1.1887   1.2017   1.2090
     1.3376   1.3499   1.3699   1.3914   1.4072   1.4198   1.4313   1.4445
     1.4685   1.4826   1.4910   1.5257   1.5457   1.5569   1.5670   1.5761
     1.6033   1.6156   1.6467   1.6604   1.6931   1.7108   1.7375   1.7553

          k =-0.1250-0.1231 0.1255 (308129 PWs)   bands (ev):

   -17.8635 -17.7947 -17.7935 -17.7805 -17.7696 -17.7619 -17.7556 -17.7526
   -15.6357 -15.5829 -15.5794 -15.5441 -15.5385 -15.5309 -15.5284 -15.5086
   -14.2612 -14.2537 -14.2267 -14.2265 -14.2244 -14.2194 -14.2162 -14.2134
   -14.2132 -14.2075 -14.2024 -14.2009 -14.1958 -14.1907 -14.1893 -14.1869
   -14.1848 -14.1831 -14.1813 -14.1802 -14.1777 -14.1753 -14.1745 -14.1728
   -14.1686 -14.1633 -14.1624 -14.1596 -14.1582 -14.1571 -14.1556 -14.1518
   -14.1428 -14.1394 -14.1386 -14.1297 -14.1207 -14.1203 -14.1072 -14.1038
    -9.7489  -9.7068  -9.6559  -9.6069  -9.5833  -9.5448  -9.5309  -9.5055
    -9.4404  -9.3986  -9.3486  -9.3313  -9.2786  -9.2482  -9.2222  -9.1835
    -9.1584  -9.1510  -9.1264  -9.1060  -9.0923  -9.0756  -9.0506  -9.0349
    -9.0119  -8.9984  -8.9571  -8.9367  -8.9270  -8.8961  -8.8710  -8.7982
    -7.6923  -7.6457  -7.6157  -7.6036  -7.5917  -7.5835  -7.5632  -7.5592
    -7.0110  -6.9626  -6.9406  -6.9384  -6.9228  -6.9145  -6.9087  -6.8743
    -5.8308  -5.4207  -5.3850  -5.3680  -5.3598  -5.3077  -5.2927  -5.2554
    -5.2495  -5.2387  -5.2351  -5.2249  -4.9811  -4.9372  -4.9237  -4.5286
    -3.8255  -3.7760  -3.7555  -3.7398  -3.7194  -3.7152  -3.7135  -3.6935
    -3.2525  -3.2110  -3.1937  -3.1917  -3.1862  -3.1730  -3.1654  -3.1562
    -0.8179  -0.7987  -0.7530  -0.7390  -0.6954  -0.6756  -0.6442  -0.6010
    -0.5863  -0.5628  -0.5001  -0.4786  -0.1379  -0.0872  -0.0384  -0.0278
    -0.0026   0.0106   0.0482   0.0642   0.4560   0.4636   0.5026   0.5172
     0.5387   0.5535   0.5718   0.6105   0.6355   0.6879   0.7177   0.7825
     0.8180   0.8472   0.8730   0.9192   0.9434   0.9645   0.9873   1.0225
     1.0388   1.0551   1.0612   1.0819   1.1033   1.1151   1.1290   1.1613
     1.1668   1.1922   1.1953   1.2110   1.2292   1.2516   1.2688   1.2725
     1.2874   1.3087   1.3322   1.3451   1.3606   1.3834   1.4078   1.4553
     1.4815   1.4970   1.5162   1.5222   1.5735   1.5891   1.6349   1.6569
     1.7007   1.7508   1.7584   1.8155   1.8473   1.8984   1.9382   2.1749

          k =-0.1250 0.1231-0.1255 (308129 PWs)   bands (ev):

   -17.8635 -17.7947 -17.7935 -17.7805 -17.7696 -17.7619 -17.7556 -17.7526
   -15.6357 -15.5829 -15.5794 -15.5441 -15.5385 -15.5309 -15.5284 -15.5086
   -14.2612 -14.2537 -14.2267 -14.2265 -14.2244 -14.2194 -14.2162 -14.2134
   -14.2132 -14.2075 -14.2024 -14.2009 -14.1958 -14.1907 -14.1893 -14.1869
   -14.1848 -14.1831 -14.1813 -14.1802 -14.1777 -14.1753 -14.1745 -14.1728
   -14.1686 -14.1633 -14.1624 -14.1596 -14.1582 -14.1571 -14.1556 -14.1518
   -14.1428 -14.1394 -14.1386 -14.1297 -14.1207 -14.1203 -14.1072 -14.1038
    -9.7477  -9.7077  -9.6575  -9.6065  -9.5808  -9.5464  -9.5343  -9.5038
    -9.4364  -9.3934  -9.3567  -9.3366  -9.2750  -9.2383  -9.2167  -9.1999
    -9.1610  -9.1495  -9.1223  -9.1069  -9.0920  -9.0782  -9.0473  -9.0362
    -9.0098  -8.9965  -8.9612  -8.9373  -8.9245  -8.8957  -8.8708  -8.7989
    -7.6923  -7.6449  -7.6156  -7.6037  -7.5917  -7.5844  -7.5631  -7.5594
    -7.0109  -6.9626  -6.9404  -6.9385  -6.9228  -6.9146  -6.9084  -6.8744
    -5.8306  -5.4218  -5.3876  -5.3699  -5.3601  -5.3067  -5.2918  -5.2517
    -5.2492  -5.2388  -5.2333  -5.2247  -4.9819  -4.9368  -4.9250  -4.5293
    -3.8253  -3.7757  -3.7550  -3.7400  -3.7203  -3.7144  -3.7140  -3.6936
    -3.2525  -3.2114  -3.1939  -3.1917  -3.1859  -3.1730  -3.1651  -3.1562
    -0.7994  -0.7874  -0.7539  -0.7392  -0.6926  -0.6837  -0.6620  -0.6031
    -0.5909  -0.5678  -0.5006  -0.4786  -0.1381  -0.0928  -0.0441  -0.0261
    -0.0017   0.0130   0.0480   0.0687   0.4540   0.4747   0.5069   0.5216
     0.5383   0.5498   0.5734   0.6080   0.6428   0.6821   0.7281   0.7730
     0.8225   0.8474   0.8642   0.9162   0.9579   0.9815   0.9963   1.0083
     1.0279   1.0440   1.0639   1.0850   1.0935   1.1070   1.1336   1.1462
     1.1763   1.1873   1.2111   1.2188   1.2345   1.2547   1.2600   1.2772
     1.2965   1.3009   1.3190   1.3349   1.3631   1.3825   1.3966   1.4615
     1.4864   1.5044   1.5124   1.5289   1.5820   1.5919   1.6359   1.6554
     1.6964   1.7565   1.7724   1.8190   1.8299   1.8985   1.9290   2.1593

          k = 0.1250-0.1231-0.1255 (308129 PWs)   bands (ev):

   -17.8635 -17.7947 -17.7935 -17.7805 -17.7696 -17.7619 -17.7556 -17.7526
   -15.6357 -15.5829 -15.5794 -15.5441 -15.5385 -15.5309 -15.5284 -15.5086
   -14.2612 -14.2537 -14.2267 -14.2265 -14.2244 -14.2194 -14.2162 -14.2134
   -14.2132 -14.2075 -14.2024 -14.2009 -14.1958 -14.1907 -14.1893 -14.1869
   -14.1848 -14.1831 -14.1813 -14.1802 -14.1777 -14.1753 -14.1745 -14.1728
   -14.1686 -14.1633 -14.1624 -14.1596 -14.1582 -14.1571 -14.1556 -14.1518
   -14.1428 -14.1394 -14.1386 -14.1297 -14.1207 -14.1203 -14.1072 -14.1038
    -9.7482  -9.7073  -9.6570  -9.6069  -9.5842  -9.5405  -9.5339  -9.5050
    -9.4396  -9.3919  -9.3564  -9.3354  -9.2787  -9.2383  -9.2160  -9.1943
    -9.1690  -9.1414  -9.1242  -9.1125  -9.0902  -9.0710  -9.0551  -9.0346
    -9.0133  -8.9940  -8.9571  -8.9410  -8.9226  -8.8954  -8.8717  -8.7988
    -7.6923  -7.6457  -7.6158  -7.6037  -7.5915  -7.5833  -7.5633  -7.5593
    -7.0110  -6.9625  -6.9405  -6.9386  -6.9228  -6.9144  -6.9085  -6.8744
    -5.8309  -5.4216  -5.3891  -5.3667  -5.3593  -5.3050  -5.2934  -5.2529
    -5.2510  -5.2394  -5.2350  -5.2227  -4.9813  -4.9396  -4.9219  -4.5294
    -3.8252  -3.7760  -3.7551  -3.7400  -3.7199  -3.7145  -3.7141  -3.6935
    -3.2525  -3.2116  -3.1939  -3.1916  -3.1859  -3.1733  -3.1651  -3.1561
    -0.8015  -0.7838  -0.7546  -0.7395  -0.6979  -0.6726  -0.6680  -0.6028
    -0.5897  -0.5685  -0.5007  -0.4808  -0.1390  -0.0914  -0.0481  -0.0231
    -0.0031   0.0142   0.0470   0.0691   0.4510   0.4709   0.5103   0.5186
     0.5434   0.5499   0.5743   0.6125   0.6363   0.6948   0.7341   0.7856
     0.8178   0.8361   0.8565   0.9178   0.9470   0.9748   1.0051   1.0155
     1.0321   1.0456   1.0552   1.0737   1.0985   1.1123   1.1352   1.1496
     1.1644   1.1961   1.2082   1.2153   1.2365   1.2493   1.2640   1.2667
     1.2845   1.3129   1.3275   1.3445   1.3602   1.3835   1.3977   1.4622
     1.4947   1.5083   1.5128   1.5270   1.5767   1.5846   1.6317   1.6572
     1.7008   1.7568   1.7684   1.8149   1.8304   1.8967   1.9322   2.1619

          k =-0.1250-0.1231 0.3765 (308067 PWs)   bands (ev):

   -17.8635 -17.7946 -17.7937 -17.7805 -17.7695 -17.7619 -17.7556 -17.7526
   -15.6357 -15.5828 -15.5795 -15.5439 -15.5382 -15.5312 -15.5286 -15.5086
   -14.2612 -14.2535 -14.2265 -14.2264 -14.2240 -14.2194 -14.2157 -14.2132
   -14.2123 -14.2086 -14.2026 -14.2015 -14.1960 -14.1907 -14.1893 -14.1869
   -14.1848 -14.1822 -14.1813 -14.1802 -14.1777 -14.1753 -14.1752 -14.1728
   -14.1686 -14.1633 -14.1624 -14.1596 -14.1582 -14.1572 -14.1560 -14.1518
   -14.1428 -14.1394 -14.1386 -14.1297 -14.1207 -14.1203 -14.1072 -14.1038
    -9.7292  -9.6988  -9.6627  -9.5949  -9.5847  -9.5728  -9.5435  -9.5305
    -9.4338  -9.3757  -9.3404  -9.3133  -9.2971  -9.2705  -9.2324  -9.2074
    -9.1662  -9.1460  -9.1246  -9.0972  -9.0611  -9.0527  -9.0332  -9.0234
    -9.0113  -9.0013  -8.9693  -8.9426  -8.9187  -8.9092  -8.8768  -8.8046
    -7.6922  -7.6457  -7.6165  -7.6028  -7.5912  -7.5831  -7.5645  -7.5596
    -7.0110  -6.9623  -6.9408  -6.9387  -6.9226  -6.9145  -6.9087  -6.8742
    -5.7112  -5.5307  -5.3787  -5.3113  -5.3040  -5.2919  -5.2717  -5.2520
    -5.2434  -5.2370  -5.2310  -5.2088  -5.0954  -5.0696  -4.8441  -4.6657
    -3.8251  -3.7715  -3.7602  -3.7391  -3.7189  -3.7156  -3.7133  -3.6946
    -3.2524  -3.2108  -3.1937  -3.1918  -3.1862  -3.1727  -3.1663  -3.1561
    -0.7993  -0.7738  -0.7300  -0.6788  -0.6463  -0.6137  -0.5899  -0.5555
    -0.3393  -0.2914  -0.2398  -0.1580  -0.1175  -0.0889  -0.0242  -0.0136
    -0.0001   0.0130   0.0360   0.0583   0.2103   0.2975   0.3392   0.4212
     0.4810   0.5077   0.5273   0.5445   0.5679   0.5966   0.6178   0.6553
     0.6922   0.7381   0.8545   0.8754   0.9211   0.9418   0.9687   0.9905
     1.0089   1.0386   1.0611   1.0893   1.0939   1.1133   1.1267   1.1577
     1.1693   1.1972   1.2121   1.2269   1.2493   1.2521   1.2663   1.2834
     1.3118   1.3258   1.3351   1.3689   1.3874   1.3963   1.4179   1.4370
     1.4547   1.4700   1.4921   1.5190   1.5540   1.5830   1.6009   1.6321
     1.6776   1.7054   1.7271   1.7443   1.7577   1.8110   1.8825   2.0158

          k =-0.1250 0.1231-0.3765 (308067 PWs)   bands (ev):

   -17.8635 -17.7946 -17.7937 -17.7805 -17.7695 -17.7619 -17.7556 -17.7526
   -15.6357 -15.5828 -15.5795 -15.5439 -15.5382 -15.5312 -15.5286 -15.5086
   -14.2612 -14.2535 -14.2265 -14.2264 -14.2240 -14.2194 -14.2157 -14.2132
   -14.2123 -14.2086 -14.2026 -14.2015 -14.1960 -14.1907 -14.1893 -14.1869
   -14.1848 -14.1822 -14.1813 -14.1802 -14.1777 -14.1753 -14.1752 -14.1728
   -14.1686 -14.1633 -14.1624 -14.1596 -14.1582 -14.1572 -14.1560 -14.1518
   -14.1428 -14.1394 -14.1386 -14.1297 -14.1207 -14.1203 -14.1072 -14.1038
    -9.7262  -9.7011  -9.6641  -9.5957  -9.5860  -9.5699  -9.5440  -9.5330
    -9.4279  -9.3711  -9.3486  -9.3130  -9.2902  -9.2694  -9.2473  -9.1985
    -9.1752  -9.1415  -9.1180  -9.0983  -9.0692  -9.0538  -9.0303  -9.0239
    -9.0077  -8.9955  -8.9749  -8.9419  -8.9192  -8.9099  -8.8753  -8.8052
    -7.6922  -7.6449  -7.6164  -7.6030  -7.5911  -7.5839  -7.5646  -7.5598
    -7.0110  -6.9623  -6.9406  -6.9388  -6.9226  -6.9146  -6.9085  -6.8744
    -5.7110  -5.5311  -5.3798  -5.3113  -5.3039  -5.2988  -5.2700  -5.2478
    -5.2432  -5.2351  -5.2292  -5.2093  -5.0972  -5.0674  -4.8454  -4.6664
    -3.8249  -3.7710  -3.7598  -3.7394  -3.7200  -3.7150  -3.7136  -3.6947
    -3.2524  -3.2113  -3.1941  -3.1914  -3.1858  -3.1727  -3.1660  -3.1561
    -0.7721  -0.7607  -0.7387  -0.6802  -0.6628  -0.6250  -0.5952  -0.5615
    -0.3382  -0.2947  -0.2346  -0.1574  -0.1188  -0.0953  -0.0256  -0.0137
     0.0034   0.0131   0.0398   0.0575   0.2106   0.2988   0.3365   0.4261
     0.4865   0.5103   0.5289   0.5515   0.5704   0.5878   0.6242   0.6418
     0.7003   0.7395   0.8526   0.8769   0.9163   0.9372   0.9617   1.0054
     1.0199   1.0467   1.0560   1.0767   1.0932   1.1217   1.1346   1.1476
     1.1738   1.1872   1.2048   1.2328   1.2417   1.2542   1.2688   1.2872
     1.3093   1.3206   1.3300   1.3525   1.3832   1.3976   1.4156   1.4354
     1.4533   1.4689   1.5048   1.5332   1.5659   1.5840   1.6020   1.6411
     1.6762   1.7111   1.7316   1.7515   1.7718   1.8028   1.8642   1.9836

          k = 0.1250-0.1231-0.3765 (308067 PWs)   bands (ev):

   -17.8635 -17.7946 -17.7937 -17.7805 -17.7695 -17.7619 -17.7556 -17.7526
   -15.6357 -15.5828 -15.5795 -15.5439 -15.5382 -15.5312 -15.5286 -15.5086
   -14.2612 -14.2535 -14.2265 -14.2264 -14.2240 -14.2194 -14.2157 -14.2132
   -14.2123 -14.2086 -14.2026 -14.2015 -14.1960 -14.1907 -14.1893 -14.1869
   -14.1848 -14.1822 -14.1813 -14.1802 -14.1777 -14.1753 -14.1752 -14.1728
   -14.1686 -14.1633 -14.1624 -14.1596 -14.1582 -14.1572 -14.1560 -14.1518
   -14.1428 -14.1394 -14.1386 -14.1297 -14.1207 -14.1203 -14.1072 -14.1038
    -9.7277  -9.6991  -9.6646  -9.5973  -9.5839  -9.5725  -9.5412  -9.5323
    -9.4307  -9.3707  -9.3375  -9.3196  -9.3032  -9.2649  -9.2392  -9.2017
    -9.1733  -9.1455  -9.1154  -9.0968  -9.0632  -9.0592  -9.0407  -9.0181
    -9.0069  -8.9971  -8.9706  -8.9445  -8.9186  -8.9080  -8.8767  -8.8051
    -7.6921  -7.6458  -7.6166  -7.6029  -7.5909  -7.5828  -7.5648  -7.5598
    -7.0110  -6.9622  -6.9407  -6.9389  -6.9226  -6.9145  -6.9086  -6.8744
    -5.7117  -5.5304  -5.3794  -5.3122  -5.2998  -5.2890  -5.2756  -5.2526
    -5.2461  -5.2374  -5.2327  -5.2064  -5.0937  -5.0685  -4.8448  -4.6666
    -3.8248  -3.7715  -3.7597  -3.7394  -3.7194  -3.7156  -3.7134  -3.6945
    -3.2524  -3.2114  -3.1941  -3.1912  -3.1858  -3.1730  -3.1660  -3.1560
    -0.7724  -0.7610  -0.7356  -0.6826  -0.6635  -0.6228  -0.5974  -0.5599
    -0.3416  -0.2898  -0.2394  -0.1587  -0.1146  -0.0913  -0.0339  -0.0130
    -0.0015   0.0167   0.0387   0.0563   0.2147   0.2890   0.3507   0.4238
     0.4835   0.5111   0.5340   0.5556   0.5773   0.5886   0.6181   0.6494
     0.6940   0.7368   0.8416   0.8753   0.9237   0.9459   0.9609   1.0049
     1.0156   1.0229   1.0633   1.0885   1.1019   1.1091   1.1317   1.1584
     1.1681   1.1884   1.1974   1.2317   1.2428   1.2571   1.2697   1.2790
     1.3009   1.3204   1.3357   1.3661   1.3878   1.4068   1.4108   1.4347
     1.4669   1.4888   1.4973   1.5117   1.5504   1.5838   1.6099   1.6322
     1.6813   1.7099   1.7291   1.7492   1.7728   1.8045   1.8658   1.9860

          k =-0.1250-0.3694 0.1255 (308001 PWs)   bands (ev):

   -17.8635 -17.7947 -17.7935 -17.7805 -17.7696 -17.7619 -17.7556 -17.7526
   -15.6357 -15.5829 -15.5794 -15.5441 -15.5385 -15.5309 -15.5284 -15.5086
   -14.2608 -14.2535 -14.2266 -14.2265 -14.2248 -14.2194 -14.2161 -14.2134
   -14.2132 -14.2073 -14.2023 -14.1997 -14.1965 -14.1907 -14.1893 -14.1869
   -14.1848 -14.1838 -14.1813 -14.1802 -14.1777 -14.1753 -14.1748 -14.1728
   -14.1686 -14.1633 -14.1624 -14.1596 -14.1582 -14.1573 -14.1557 -14.1518
   -14.1428 -14.1395 -14.1386 -14.1297 -14.1207 -14.1203 -14.1072 -14.1038
    -9.7383  -9.7150  -9.6543  -9.6068  -9.5824  -9.5473  -9.5320  -9.5040
    -9.4236  -9.3824  -9.3513  -9.3362  -9.3139  -9.2760  -9.2552  -9.1938
    -9.1668  -9.1441  -9.1053  -9.0945  -9.0663  -9.0481  -9.0279  -9.0231
    -9.0068  -8.9929  -8.9669  -8.9571  -8.9307  -8.8984  -8.8810  -8.8044
    -7.6914  -7.6457  -7.6102  -7.6029  -7.5964  -7.5839  -7.5635  -7.5597
    -7.0107  -6.9620  -6.9410  -6.9381  -6.9231  -6.9145  -6.9089  -6.8745
    -5.7119  -5.5281  -5.3817  -5.3153  -5.3043  -5.2905  -5.2748  -5.2538
    -5.2445  -5.2382  -5.2275  -5.2082  -5.0948  -5.0621  -4.8479  -4.6696
    -3.8244  -3.7742  -3.7539  -3.7423  -3.7195  -3.7159  -3.7133  -3.6942
    -3.2522  -3.2094  -3.1958  -3.1915  -3.1856  -3.1735  -3.1657  -3.1566
    -0.7952  -0.7425  -0.7164  -0.6801  -0.6062  -0.5823  -0.5430  -0.5210
    -0.3545  -0.3323  -0.2632  -0.1793  -0.1273  -0.0769  -0.0373  -0.0215
    -0.0114   0.0031   0.0395   0.0609   0.2334   0.2974   0.3561   0.4162
     0.4700   0.5006   0.5284   0.5551   0.5644   0.5826   0.6078   0.6376
     0.7011   0.7117   0.8089   0.8322   0.8857   0.8934   0.9642   0.9910
     1.0258   1.0532   1.0622   1.0766   1.0995   1.1185   1.1234   1.1468
     1.1639   1.1932   1.2084   1.2316   1.2449   1.2565   1.2704   1.2949
     1.3149   1.3355   1.3547   1.3793   1.3889   1.4067   1.4119   1.4479
     1.4646   1.4772   1.4880   1.5264   1.5665   1.5778   1.6009   1.6187
     1.6393   1.6726   1.6944   1.7391   1.7509   1.8350   1.9199   2.0110

          k =-0.1250 0.3694-0.1255 (308001 PWs)   bands (ev):

   -17.8635 -17.7947 -17.7935 -17.7805 -17.7696 -17.7619 -17.7556 -17.7526
   -15.6357 -15.5829 -15.5794 -15.5441 -15.5385 -15.5309 -15.5284 -15.5086
   -14.2608 -14.2535 -14.2266 -14.2265 -14.2248 -14.2194 -14.2161 -14.2134
   -14.2132 -14.2073 -14.2023 -14.1997 -14.1965 -14.1907 -14.1893 -14.1869
   -14.1848 -14.1838 -14.1813 -14.1802 -14.1777 -14.1753 -14.1748 -14.1728
   -14.1686 -14.1633 -14.1624 -14.1596 -14.1582 -14.1573 -14.1557 -14.1518
   -14.1428 -14.1395 -14.1386 -14.1297 -14.1207 -14.1203 -14.1072 -14.1038
    -9.7369  -9.7156  -9.6569  -9.6067  -9.5779  -9.5481  -9.5370  -9.5045
    -9.4141  -9.3734  -9.3660  -9.3388  -9.3158  -9.2766  -9.2422  -9.2090
    -9.1595  -9.1429  -9.1091  -9.0940  -9.0672  -9.0456  -9.0323  -9.0203
    -9.0052  -8.9886  -8.9736  -8.9548  -8.9309  -8.8972  -8.8809  -8.8050
    -7.6914  -7.6449  -7.6102  -7.6031  -7.5963  -7.5848  -7.5635  -7.5598
    -7.0107  -6.9620  -6.9408  -6.9381  -6.9230  -6.9146  -6.9086  -6.8747
    -5.7112  -5.5300  -5.3810  -5.3191  -5.3031  -5.2933  -5.2829  -5.2499
    -5.2396  -5.2353  -5.2260  -5.2006  -5.0983  -5.0650  -4.8472  -4.6709
    -3.8242  -3.7737  -3.7531  -3.7429  -3.7209  -3.7156  -3.7130  -3.6944
    -3.2522  -3.2100  -3.1956  -3.1919  -3.1852  -3.1734  -3.1655  -3.1566
    -0.7868  -0.7450  -0.7045  -0.6937  -0.5962  -0.5741  -0.5414  -0.5185
    -0.3704  -0.3453  -0.2747  -0.1901  -0.1273  -0.0828  -0.0519  -0.0163
    -0.0094   0.0033   0.0359   0.0700   0.2473   0.3172   0.3656   0.4407
     0.4688   0.5034   0.5286   0.5423   0.5623   0.5833   0.6047   0.6334
     0.6902   0.7231   0.7992   0.8240   0.8847   0.9023   0.9746   0.9833
     1.0173   1.0378   1.0616   1.0773   1.1046   1.1201   1.1408   1.1497
     1.1687   1.1967   1.2104   1.2137   1.2430   1.2628   1.2774   1.2963
     1.3186   1.3264   1.3512   1.3743   1.3763   1.3979   1.4135   1.4539
     1.4739   1.4868   1.4979   1.5154   1.5641   1.5754   1.6098   1.6238
     1.6299   1.6688   1.7017   1.7262   1.7584   1.8397   1.9190   1.9965

          k = 0.1250-0.3694-0.1255 (308001 PWs)   bands (ev):

   -17.8635 -17.7947 -17.7935 -17.7805 -17.7696 -17.7619 -17.7556 -17.7526
   -15.6357 -15.5829 -15.5794 -15.5441 -15.5385 -15.5309 -15.5284 -15.5086
   -14.2608 -14.2535 -14.2266 -14.2265 -14.2248 -14.2194 -14.2161 -14.2134
   -14.2132 -14.2073 -14.2023 -14.1997 -14.1965 -14.1907 -14.1893 -14.1869
   -14.1848 -14.1838 -14.1813 -14.1802 -14.1777 -14.1753 -14.1748 -14.1728
   -14.1686 -14.1633 -14.1624 -14.1596 -14.1582 -14.1573 -14.1557 -14.1518
   -14.1428 -14.1395 -14.1386 -14.1297 -14.1207 -14.1203 -14.1072 -14.1038
    -9.7371  -9.7160  -9.6555  -9.6068  -9.5835  -9.5437  -9.5341  -9.5034
    -9.4193  -9.3772  -9.3645  -9.3355  -9.3186  -9.2665  -9.2457  -9.2114
    -9.1651  -9.1377  -9.1039  -9.0978  -9.0658  -9.0526  -9.0288  -9.0207
    -9.0082  -8.9866  -8.9689  -8.9591  -8.9283  -8.8972  -8.8820  -8.8050
    -7.6914  -7.6458  -7.6105  -7.6030  -7.5960  -7.5837  -7.5637  -7.5598
    -7.0107  -6.9619  -6.9409  -6.9382  -6.9231  -6.9144  -6.9087  -6.8747
    -5.7118  -5.5288  -5.3821  -5.3217  -5.3031  -5.2891  -5.2760  -5.2548
    -5.2407  -5.2342  -5.2278  -5.2042  -5.0985  -5.0625  -4.8472  -4.6710
    -3.8241  -3.7742  -3.7531  -3.7428  -3.7204  -3.7156  -3.7132  -3.6942
    -3.2522  -3.2101  -3.1956  -3.1916  -3.1853  -3.1737  -3.1654  -3.1565
    -0.7914  -0.7379  -0.7119  -0.6793  -0.6035  -0.5787  -0.5408  -0.5185
    -0.3708  -0.3433  -0.2738  -0.1896  -0.1282  -0.0830  -0.0621  -0.0166
    -0.0103   0.0060   0.0401   0.0699   0.2479   0.3179   0.3673   0.4425
     0.4677   0.5071   0.5291   0.5471   0.5650   0.5800   0.6061   0.6356
     0.6993   0.7165   0.7831   0.8248   0.8846   0.8971   0.9705   0.9877
     1.0239   1.0534   1.0636   1.0751   1.0989   1.1225   1.1353   1.1471
     1.1563   1.1831   1.2051   1.2314   1.2452   1.2563   1.2749   1.2955
     1.3209   1.3375   1.3543   1.3630   1.3771   1.4093   1.4176   1.4497
     1.4677   1.4874   1.5021   1.5329   1.5534   1.5825   1.6034   1.6218
     1.6333   1.6621   1.7016   1.7298   1.7526   1.8358   1.9201   2.0000

          k =-0.1250-0.3694 0.3765 (308021 PWs)   bands (ev):

   -17.8635 -17.7946 -17.7937 -17.7805 -17.7695 -17.7619 -17.7556 -17.7526
   -15.6357 -15.5828 -15.5795 -15.5439 -15.5382 -15.5312 -15.5286 -15.5086
   -14.2608 -14.2534 -14.2266 -14.2262 -14.2244 -14.2194 -14.2157 -14.2132
   -14.2123 -14.2084 -14.2025 -14.2004 -14.1965 -14.1908 -14.1893 -14.1869
   -14.1848 -14.1828 -14.1813 -14.1801 -14.1777 -14.1755 -14.1753 -14.1728
   -14.1686 -14.1633 -14.1624 -14.1596 -14.1582 -14.1574 -14.1560 -14.1518
   -14.1428 -14.1395 -14.1386 -14.1297 -14.1207 -14.1203 -14.1072 -14.1038
    -9.7232  -9.6998  -9.6614  -9.5938  -9.5873  -9.5743  -9.5438  -9.5275
    -9.4207  -9.3659  -9.3399  -9.3317  -9.3139  -9.2830  -9.2625  -9.2126
    -9.2002  -9.1139  -9.0936  -9.0719  -9.0618  -9.0332  -9.0275  -9.0217
    -9.0124  -8.9953  -8.9772  -8.9459  -8.9219  -8.9111  -8.8881  -8.8100
    -7.6912  -7.6458  -7.6111  -7.6023  -7.5955  -7.5833  -7.5649  -7.5601
    -7.0108  -6.9620  -6.9411  -6.9382  -6.9229  -6.9145  -6.9089  -6.8745
    -5.5960  -5.4425  -5.4036  -5.3748  -5.3108  -5.2994  -5.2646  -5.2522
    -5.2425  -5.2310  -5.2264  -5.1914  -5.1534  -5.0033  -4.9635  -4.8041
    -3.8239  -3.7699  -3.7581  -3.7412  -3.7202  -3.7148  -3.7141  -3.6946
    -3.2522  -3.2095  -3.1951  -3.1924  -3.1857  -3.1729  -3.1666  -3.1567
    -0.7699  -0.6846  -0.6298  -0.5882  -0.3999  -0.3538  -0.3196  -0.2959
    -0.2703  -0.2242  -0.2085  -0.1816  -0.1078  -0.0812  -0.0293  -0.0166
    -0.0023   0.0188   0.0354   0.0575   0.1731   0.2291   0.2723   0.3072
     0.3504   0.3679   0.4046   0.4524   0.5233   0.5571   0.5742   0.5956
     0.6313   0.7072   0.7543   0.7981   0.8265   0.8536   0.8738   0.9104
     0.9442   0.9703   1.0124   1.0458   1.0616   1.0776   1.1022   1.1176
     1.1636   1.1910   1.2093   1.2205   1.2511   1.2767   1.3055   1.3151
     1.3275   1.3499   1.3599   1.3794   1.3907   1.4070   1.4280   1.4502
     1.4520   1.4766   1.5077   1.5153   1.5250   1.5550   1.5742   1.6045
     1.6212   1.6478   1.6798   1.7068   1.7158   1.7497   1.7800   1.8834

          k =-0.1250 0.3694-0.3765 (308021 PWs)   bands (ev):

   -17.8635 -17.7946 -17.7937 -17.7805 -17.7695 -17.7619 -17.7556 -17.7526
   -15.6357 -15.5828 -15.5795 -15.5439 -15.5382 -15.5312 -15.5286 -15.5086
   -14.2608 -14.2534 -14.2266 -14.2262 -14.2244 -14.2194 -14.2157 -14.2132
   -14.2123 -14.2084 -14.2025 -14.2004 -14.1965 -14.1908 -14.1893 -14.1869
   -14.1848 -14.1828 -14.1813 -14.1801 -14.1777 -14.1756 -14.1753 -14.1728
   -14.1686 -14.1633 -14.1624 -14.1596 -14.1582 -14.1574 -14.1560 -14.1518
   -14.1428 -14.1395 -14.1386 -14.1297 -14.1207 -14.1203 -14.1072 -14.1038
    -9.7204  -9.7007  -9.6645  -9.5945  -9.5872  -9.5714  -9.5432  -9.5336
    -9.4088  -9.3625  -9.3508  -9.3266  -9.3117  -9.2934  -9.2531  -9.2328
    -9.1870  -9.1129  -9.0930  -9.0726  -9.0614  -9.0403  -9.0300  -9.0144
    -9.0099  -8.9893  -8.9832  -8.9448  -8.9256  -8.9099  -8.8863  -8.8106
    -7.6912  -7.6450  -7.6111  -7.6024  -7.5954  -7.5841  -7.5650  -7.5603
    -7.0108  -6.9620  -6.9410  -6.9382  -6.9229  -6.9146  -6.9087  -6.8746
    -5.5956  -5.4437  -5.4056  -5.3741  -5.3081  -5.2990  -5.2687  -5.2529
    -5.2413  -5.2302  -5.2275  -5.1902  -5.1490  -5.0041  -4.9639  -4.8057
    -3.8237  -3.7693  -3.7576  -3.7416  -3.7215  -3.7146  -3.7140  -3.6947
    -3.2522  -3.2100  -3.1952  -3.1924  -3.1853  -3.1729  -3.1664  -3.1568
    -0.7641  -0.6727  -0.6268  -0.5861  -0.4121  -0.3686  -0.3193  -0.3010
    -0.2731  -0.2341  -0.2103  -0.1817  -0.1090  -0.0880  -0.0299  -0.0125
     0.0018   0.0165   0.0363   0.0524   0.1786   0.2325   0.2865   0.3354
     0.3442   0.3666   0.4180   0.4508   0.5275   0.5439   0.5649   0.5899
     0.6397   0.7090   0.7683   0.7868   0.8140   0.8474   0.8895   0.9107
     0.9469   0.9624   1.0097   1.0352   1.0671   1.0838   1.1068   1.1222
     1.1621   1.1929   1.2033   1.2193   1.2393   1.2735   1.2955   1.3213
     1.3283   1.3489   1.3648   1.3803   1.3932   1.4093   1.4174   1.4475
     1.4678   1.4746   1.5095   1.5175   1.5414   1.5515   1.5767   1.6007
     1.6213   1.6510   1.6790   1.7030   1.7296   1.7562   1.7628   1.8613

          k = 0.1250-0.3694-0.3765 (308021 PWs)   bands (ev):

   -17.8635 -17.7946 -17.7937 -17.7805 -17.7695 -17.7619 -17.7556 -17.7526
   -15.6357 -15.5828 -15.5795 -15.5439 -15.5382 -15.5312 -15.5286 -15.5086
   -14.2608 -14.2534 -14.2266 -14.2262 -14.2244 -14.2194 -14.2157 -14.2132
   -14.2123 -14.2084 -14.2025 -14.2004 -14.1965 -14.1908 -14.1893 -14.1869
   -14.1848 -14.1828 -14.1813 -14.1801 -14.1777 -14.1755 -14.1753 -14.1728
   -14.1686 -14.1633 -14.1624 -14.1596 -14.1582 -14.1574 -14.1560 -14.1518
   -14.1428 -14.1395 -14.1386 -14.1297 -14.1207 -14.1203 -14.1072 -14.1038
    -9.7212  -9.7004  -9.6635  -9.5978  -9.5847  -9.5743  -9.5418  -9.5289
    -9.4142  -9.3643  -9.3532  -9.3196  -9.3116  -9.2880  -9.2606  -9.2315
    -9.1875  -9.1088  -9.0899  -9.0763  -9.0617  -9.0475  -9.0335  -9.0104
    -9.0038  -8.9943  -8.9791  -8.9483  -8.9217  -8.9093  -8.8883  -8.8106
    -7.6912  -7.6459  -7.6113  -7.6024  -7.5951  -7.5830  -7.5652  -7.5603
    -7.0108  -6.9619  -6.9411  -6.9383  -6.9230  -6.9144  -6.9088  -6.8746
    -5.5973  -5.4427  -5.3964  -5.3782  -5.3036  -5.3006  -5.2813  -5.2549
    -5.2410  -5.2359  -5.2201  -5.1827  -5.1516  -5.0053  -4.9620  -4.8061
    -3.8236  -3.7699  -3.7574  -3.7416  -3.7209  -3.7152  -3.7137  -3.6946
    -3.2522  -3.2102  -3.1952  -3.1920  -3.1854  -3.1732  -3.1663  -3.1566
    -0.7643  -0.6736  -0.6239  -0.5852  -0.4056  -0.3670  -0.3364  -0.2997
    -0.2784  -0.2373  -0.1898  -0.1820  -0.1087  -0.0867  -0.0514  -0.0142
    -0.0078   0.0147   0.0415   0.0520   0.1839   0.2567   0.2979   0.3365
     0.3566   0.3714   0.3962   0.4359   0.5210   0.5464   0.5787   0.5903
     0.6366   0.7064   0.7607   0.7793   0.8194   0.8453   0.8966   0.9070
     0.9351   0.9885   1.0171   1.0339   1.0489   1.0773   1.0979   1.1281
     1.1551   1.1907   1.2071   1.2262   1.2607   1.2662   1.2891   1.3164
     1.3332   1.3430   1.3674   1.3824   1.3901   1.4153   1.4278   1.4481
     1.4650   1.4868   1.5009   1.5155   1.5266   1.5612   1.5771   1.5987
     1.6194   1.6495   1.6816   1.7052   1.7174   1.7496   1.7720   1.8655

          k =-0.3750-0.1231 0.1255 (308081 PWs)   bands (ev):

   -17.8634 -17.7947 -17.7935 -17.7805 -17.7696 -17.7618 -17.7556 -17.7526
   -15.6352 -15.5833 -15.5794 -15.5440 -15.5384 -15.5309 -15.5286 -15.5086
   -14.2610 -14.2536 -14.2267 -14.2265 -14.2243 -14.2194 -14.2149 -14.2132
   -14.2131 -14.2077 -14.2031 -14.2011 -14.1961 -14.1913 -14.1893 -14.1869
   -14.1848 -14.1831 -14.1813 -14.1802 -14.1777 -14.1753 -14.1744 -14.1728
   -14.1686 -14.1633 -14.1624 -14.1596 -14.1582 -14.1571 -14.1548 -14.1518
   -14.1428 -14.1404 -14.1386 -14.1297 -14.1207 -14.1203 -14.1072 -14.1038
    -9.7271  -9.6899  -9.6610  -9.6425  -9.5827  -9.5440  -9.5346  -9.5119
    -9.4450  -9.4032  -9.3418  -9.3189  -9.2948  -9.2696  -9.2182  -9.1750
    -9.1589  -9.1395  -9.1239  -9.1121  -9.0956  -9.0839  -9.0373  -9.0135
    -9.0031  -8.9775  -8.9591  -8.9409  -8.9320  -8.9085  -8.8601  -8.8197
    -7.6911  -7.6476  -7.6157  -7.6032  -7.5919  -7.5836  -7.5642  -7.5592
    -7.0105  -6.9625  -6.9406  -6.9386  -6.9225  -6.9152  -6.9076  -6.8746
    -5.7124  -5.5304  -5.3750  -5.3154  -5.3062  -5.2879  -5.2641  -5.2572
    -5.2479  -5.2342  -5.2220  -5.2197  -5.1057  -5.0641  -4.8347  -4.6667
    -3.8253  -3.7759  -3.7546  -3.7392  -3.7202  -3.7158  -3.7135  -3.6944
    -3.2527  -3.2080  -3.1923  -3.1894  -3.1839  -3.1759  -3.1703  -3.1581
    -0.7869  -0.7564  -0.7306  -0.6892  -0.6762  -0.6175  -0.6029  -0.5619
    -0.3756  -0.3095  -0.1965  -0.1364  -0.1224  -0.0750  -0.0339  -0.0225
     0.0063   0.0181   0.0349   0.0576   0.1912   0.2729   0.3713   0.4357
     0.4943   0.5128   0.5432   0.5611   0.5816   0.5945   0.6165   0.6466
     0.6816   0.7579   0.8428   0.8629   0.9053   0.9362   0.9590   0.9887
     1.0150   1.0565   1.0705   1.0787   1.0954   1.1136   1.1334   1.1595
     1.1624   1.1875   1.2117   1.2296   1.2534   1.2664   1.2755   1.2918
     1.3003   1.3160   1.3298   1.3558   1.3767   1.4006   1.4149   1.4584
     1.4669   1.4799   1.5142   1.5398   1.5702   1.5739   1.5929   1.6519
     1.6721   1.6925   1.7043   1.7279   1.7684   1.7897   1.8962   1.9833

          k =-0.3750 0.1231-0.1255 (308081 PWs)   bands (ev):

   -17.8634 -17.7947 -17.7935 -17.7805 -17.7696 -17.7618 -17.7556 -17.7526
   -15.6352 -15.5833 -15.5794 -15.5440 -15.5384 -15.5309 -15.5286 -15.5086
   -14.2610 -14.2536 -14.2267 -14.2265 -14.2243 -14.2194 -14.2149 -14.2132
   -14.2131 -14.2077 -14.2031 -14.2011 -14.1961 -14.1913 -14.1893 -14.1869
   -14.1848 -14.1831 -14.1813 -14.1802 -14.1777 -14.1753 -14.1744 -14.1728
   -14.1686 -14.1633 -14.1624 -14.1596 -14.1582 -14.1571 -14.1548 -14.1518
   -14.1428 -14.1404 -14.1386 -14.1297 -14.1207 -14.1203 -14.1072 -14.1038
    -9.7241  -9.6933  -9.6632  -9.6408  -9.5800  -9.5472  -9.5370  -9.5093
    -9.4398  -9.4007  -9.3519  -9.3228  -9.2994  -9.2498  -9.2145  -9.1872
    -9.1650  -9.1377  -9.1192  -9.1133  -9.0942  -9.0856  -9.0363  -9.0136
    -9.0027  -8.9711  -8.9676  -8.9412  -8.9270  -8.9114  -8.8575  -8.8217
    -7.6911  -7.6468  -7.6156  -7.6034  -7.5918  -7.5846  -7.5642  -7.5594
    -7.0104  -6.9625  -6.9403  -6.9387  -6.9225  -6.9153  -6.9074  -6.8748
    -5.7115  -5.5324  -5.3755  -5.3148  -5.3127  -5.2937  -5.2694  -5.2499
    -5.2426  -5.2312  -5.2200  -5.2109  -5.1094  -5.0678  -4.8342  -4.6679
    -3.8250  -3.7755  -3.7541  -3.7395  -3.7210  -3.7157  -3.7135  -3.6946
    -3.2527  -3.2086  -3.1926  -3.1892  -3.1838  -3.1757  -3.1700  -3.1582
    -0.7778  -0.7560  -0.7312  -0.6875  -0.6617  -0.6237  -0.6033  -0.5662
    -0.3864  -0.3244  -0.1979  -0.1334  -0.1229  -0.0812  -0.0588  -0.0245
     0.0100   0.0281   0.0416   0.0573   0.1871   0.2898   0.3794   0.4565
     0.5011   0.5127   0.5406   0.5520   0.5800   0.6023   0.6062   0.6552
     0.6999   0.7364   0.8255   0.8781   0.9142   0.9280   0.9492   0.9817
     1.0229   1.0453   1.0673   1.0837   1.0945   1.1207   1.1469   1.1578
     1.1773   1.1855   1.2104   1.2241   1.2343   1.2663   1.2782   1.2916
     1.3003   1.3234   1.3304   1.3493   1.3703   1.3873   1.4036   1.4587
     1.4779   1.5036   1.5184   1.5460   1.5515   1.5844   1.6012   1.6388
     1.6640   1.6941   1.7168   1.7322   1.7613   1.7874   1.9052   1.9618

          k = 0.3750-0.1231-0.1255 (308081 PWs)   bands (ev):

   -17.8634 -17.7947 -17.7935 -17.7805 -17.7696 -17.7618 -17.7556 -17.7526
   -15.6352 -15.5833 -15.5794 -15.5440 -15.5384 -15.5309 -15.5286 -15.5086
   -14.2610 -14.2536 -14.2267 -14.2265 -14.2243 -14.2194 -14.2149 -14.2132
   -14.2131 -14.2077 -14.2031 -14.2011 -14.1961 -14.1913 -14.1893 -14.1869
   -14.1848 -14.1831 -14.1813 -14.1802 -14.1777 -14.1753 -14.1744 -14.1728
   -14.1686 -14.1633 -14.1624 -14.1596 -14.1582 -14.1571 -14.1548 -14.1518
   -14.1428 -14.1404 -14.1386 -14.1297 -14.1207 -14.1203 -14.1072 -14.1038
    -9.7258  -9.6907  -9.6636  -9.6407  -9.5837  -9.5434  -9.5353  -9.5095
    -9.4444  -9.3989  -9.3472  -9.3241  -9.3033  -9.2481  -9.2213  -9.1789
    -9.1650  -9.1350  -9.1229  -9.1134  -9.0960  -9.0825  -9.0346  -9.0207
    -9.0052  -8.9713  -8.9584  -8.9426  -8.9312  -8.9069  -8.8608  -8.8204
    -7.6911  -7.6477  -7.6158  -7.6032  -7.5917  -7.5836  -7.5644  -7.5593
    -7.0105  -6.9624  -6.9404  -6.9387  -6.9225  -6.9152  -6.9074  -6.8747
    -5.7118  -5.5325  -5.3745  -5.3170  -5.3119  -5.2926  -5.2608  -5.2500
    -5.2473  -5.2358  -5.2174  -5.2141  -5.1091  -5.0676  -4.8335  -4.6681
    -3.8249  -3.7759  -3.7542  -3.7395  -3.7206  -3.7154  -3.7139  -3.6945
    -3.2527  -3.2086  -3.1925  -3.1892  -3.1835  -3.1761  -3.1700  -3.1580
    -0.7736  -0.7520  -0.7401  -0.6950  -0.6575  -0.6220  -0.6016  -0.5623
    -0.3897  -0.3207  -0.2041  -0.1430  -0.1258  -0.0799  -0.0496  -0.0213
     0.0109   0.0234   0.0422   0.0563   0.1920   0.2971   0.3758   0.4621
     0.4884   0.5095   0.5326   0.5640   0.5848   0.5926   0.6252   0.6422
     0.6989   0.7269   0.8477   0.8805   0.9144   0.9318   0.9589   0.9841
     1.0165   1.0435   1.0529   1.0827   1.0953   1.1129   1.1420   1.1502
     1.1778   1.1958   1.2101   1.2203   1.2467   1.2522   1.2631   1.2886
     1.3023   1.3105   1.3417   1.3568   1.3782   1.3952   1.4161   1.4589
     1.4857   1.4979   1.5147   1.5416   1.5608   1.5816   1.5996   1.6464
     1.6675   1.6907   1.7023   1.7330   1.7516   1.7909   1.9013   1.9705

          k =-0.3750-0.1231 0.3765 (308017 PWs)   bands (ev):

   -17.8634 -17.7946 -17.7937 -17.7805 -17.7695 -17.7619 -17.7556 -17.7526
   -15.6352 -15.5833 -15.5794 -15.5438 -15.5381 -15.5312 -15.5288 -15.5086
   -14.2610 -14.2534 -14.2265 -14.2264 -14.2240 -14.2194 -14.2144 -14.2132
   -14.2118 -14.2086 -14.2037 -14.2016 -14.1963 -14.1913 -14.1893 -14.1869
   -14.1847 -14.1822 -14.1813 -14.1802 -14.1777 -14.1753 -14.1752 -14.1728
   -14.1686 -14.1633 -14.1624 -14.1596 -14.1582 -14.1572 -14.1551 -14.1518
   -14.1428 -14.1404 -14.1386 -14.1297 -14.1207 -14.1203 -14.1072 -14.1038
    -9.7153  -9.6785  -9.6575  -9.6202  -9.5861  -9.5727  -9.5581  -9.5443
    -9.4256  -9.3749  -9.3417  -9.3335  -9.2976  -9.2639  -9.2383  -9.2244
    -9.1507  -9.1398  -9.1168  -9.0930  -9.0660  -9.0474  -9.0280  -9.0211
    -9.0043  -8.9859  -8.9574  -8.9529  -8.9325  -8.8977  -8.8727  -8.8269
    -7.6911  -7.6461  -7.6164  -7.6026  -7.5910  -7.5847  -7.5659  -7.5603
    -7.0105  -6.9622  -6.9405  -6.9388  -6.9223  -6.9154  -6.9076  -6.8746
    -5.5969  -5.4420  -5.3968  -5.3696  -5.3094  -5.2985  -5.2765  -5.2535
    -5.2457  -5.2364  -5.2245  -5.2058  -5.1421  -4.9924  -4.9564  -4.8035
    -3.8248  -3.7707  -3.7591  -3.7385  -3.7189  -3.7165  -3.7146  -3.6959
    -3.2526  -3.2078  -3.1924  -3.1892  -3.1835  -3.1761  -3.1708  -3.1578
    -0.7646  -0.7369  -0.6807  -0.6483  -0.4371  -0.3872  -0.3312  -0.2949
    -0.2723  -0.2209  -0.1814  -0.1255  -0.1145  -0.0716  -0.0267  -0.0025
     0.0058   0.0214   0.0357   0.0602   0.1700   0.2263   0.2796   0.3100
     0.3447   0.3742   0.4216   0.4774   0.5134   0.5289   0.5423   0.5889
     0.6935   0.7566   0.7874   0.8289   0.8478   0.8859   0.9209   0.9422
     0.9651   1.0134   1.0234   1.0459   1.0739   1.0939   1.1192   1.1283
     1.1646   1.1817   1.2004   1.2133   1.2350   1.2456   1.2589   1.2905
     1.3055   1.3267   1.3571   1.3756   1.3822   1.4021   1.4246   1.4382
     1.4502   1.4752   1.4953   1.5079   1.5427   1.5530   1.5886   1.6095
     1.6371   1.6558   1.6800   1.7135   1.7383   1.7652   1.7900   1.8406

          k =-0.3750 0.1231-0.3765 (308017 PWs)   bands (ev):

   -17.8634 -17.7946 -17.7937 -17.7805 -17.7695 -17.7619 -17.7556 -17.7526
   -15.6352 -15.5833 -15.5794 -15.5438 -15.5381 -15.5312 -15.5288 -15.5086
   -14.2610 -14.2534 -14.2265 -14.2264 -14.2240 -14.2194 -14.2144 -14.2132
   -14.2118 -14.2086 -14.2037 -14.2016 -14.1963 -14.1913 -14.1893 -14.1869
   -14.1847 -14.1822 -14.1813 -14.1802 -14.1777 -14.1753 -14.1752 -14.1728
   -14.1686 -14.1633 -14.1624 -14.1596 -14.1582 -14.1572 -14.1551 -14.1518
   -14.1428 -14.1404 -14.1386 -14.1297 -14.1207 -14.1203 -14.1072 -14.1038
    -9.7115  -9.6822  -9.6574  -9.6226  -9.5877  -9.5721  -9.5561  -9.5451
    -9.4147  -9.3775  -9.3581  -9.3187  -9.2945  -9.2721  -9.2512  -9.2079
    -9.1596  -9.1354  -9.1137  -9.0942  -9.0642  -9.0546  -9.0319  -9.0193
    -8.9922  -8.9831  -8.9720  -8.9432  -8.9333  -8.9042  -8.8659  -8.8293
    -7.6911  -7.6452  -7.6163  -7.6027  -7.5909  -7.5855  -7.5660  -7.5605
    -7.0104  -6.9622  -6.9403  -6.9389  -6.9223  -6.9155  -6.9074  -6.8747
    -5.5963  -5.4361  -5.4076  -5.3735  -5.3074  -5.3001  -5.2623  -5.2567
    -5.2465  -5.2360  -5.2283  -5.2060  -5.1376  -4.9918  -4.9594  -4.8046
    -3.8246  -3.7702  -3.7587  -3.7388  -3.7202  -3.7160  -3.7148  -3.6960
    -3.2526  -3.2083  -3.1929  -3.1886  -3.1833  -3.1760  -3.1706  -3.1578
    -0.7495  -0.7394  -0.6692  -0.6543  -0.4475  -0.3847  -0.3494  -0.3044
    -0.2770  -0.2268  -0.1651  -0.1272  -0.1052  -0.0755  -0.0428  -0.0086
     0.0110   0.0261   0.0345   0.0623   0.1591   0.2320   0.2655   0.3175
     0.3704   0.4018   0.4359   0.4699   0.5049   0.5248   0.5463   0.5845
     0.6927   0.7455   0.8015   0.8244   0.8383   0.8676   0.9276   0.9596
     0.9695   1.0025   1.0332   1.0584   1.0825   1.0931   1.1082   1.1280
     1.1585   1.1835   1.1896   1.2115   1.2338   1.2438   1.2674   1.2899
     1.2991   1.3217   1.3370   1.3502   1.3815   1.4037   1.4265   1.4442
[...]
   -15.6806 -15.6281 -15.6214 -15.5911 -15.5753 -15.5685 -15.5655 -15.5504
   -14.2953 -14.2882 -14.2632 -14.2621 -14.2599 -14.2551 -14.2513 -14.2489
   -14.2475 -14.2432 -14.2388 -14.2379 -14.2328 -14.2288 -14.2275 -14.2235
   -14.2213 -14.2192 -14.2191 -14.2177 -14.2146 -14.2140 -14.2111 -14.2085
   -14.2042 -14.2020 -14.2006 -14.1965 -14.1964 -14.1944 -14.1939 -14.1886
   -14.1802 -14.1789 -14.1776 -14.1699 -14.1606 -14.1581 -14.1449 -14.1414
    -9.7468  -9.7058  -9.6850  -9.6586  -9.6279  -9.6088  -9.5907  -9.5835
    -9.4317  -9.3881  -9.3754  -9.3650  -9.3530  -9.3121  -9.2907  -9.2779
    -9.1657  -9.1326  -9.1183  -9.0960  -9.0737  -9.0709  -9.0535  -9.0445
    -9.0277  -9.0080  -8.9871  -8.9787  -8.9598  -8.9345  -8.9056  -8.8615
    -7.7209  -7.6781  -7.6604  -7.6391  -7.6201  -7.6133  -7.6073  -7.6019
    -7.0610  -7.0103  -6.9880  -6.9783  -6.9665  -6.9624  -6.9592  -6.9236
    -5.5122  -5.4057  -5.3771  -5.3554  -5.3398  -5.3243  -5.3008  -5.2868
    -5.2713  -5.2661  -5.2611  -5.2431  -5.1673  -5.1401  -5.1148  -4.9762
    -3.8523  -3.8002  -3.7874  -3.7802  -3.7609  -3.7529  -3.7504  -3.7428
    -3.2932  -3.2589  -3.2372  -3.2300  -3.2165  -3.2091  -3.2053  -3.1967
    -0.4767  -0.4495  -0.4217  -0.3869  -0.3716  -0.3333  -0.3153  -0.2928
    -0.2696  -0.2443  -0.2028  -0.1675  -0.1455  -0.1039  -0.0829  -0.0477
    -0.0304  -0.0224  -0.0010   0.0421   0.1568   0.1876   0.2172   0.2354
     0.2724   0.3112   0.3292   0.3520   0.3778   0.3981   0.4327   0.4748
     0.7063   0.7163   0.7465   0.7596   0.7936   0.8198   0.8580   0.8886
     0.9028   0.9179   0.9303   0.9533   0.9841   0.9985   1.0137   1.0404
     1.0849   1.0989   1.1041   1.1266   1.1441   1.1530   1.1782   1.1981
     1.3021   1.3213   1.3333   1.3651   1.3844   1.3946   1.4098   1.4236
     1.4413   1.4680   1.4854   1.4909   1.5083   1.5248   1.5394   1.5498
     1.5687   1.5854   1.6078   1.6301   1.6568   1.6725   1.6960   1.7331

     highest occupied level (ev):     2.1340

!    total energy              =  -16707.47885341 Ry
     Harris-Foulkes estimate   =  -16707.47885341 Ry
     estimated scf accuracy    <          3.5E-09 Ry

     total all-electron energy =   -678114.538538 Ry

     The total energy is the sum of the following terms:

     one-electron contribution =    -941.50594376 Ry
     hartree contribution      =     670.73756114 Ry
     xc contribution           =    -795.80661057 Ry
     ewald contribution        =   -1222.27022331 Ry
     DFT-D3 Dispersion         =      -0.64731018 Ry
     one-center paw contrib.   =  -14417.98632672 Ry

     convergence has been achieved in   9 iterations

     Forces acting on atoms (cartesian axes, Ry/au):

     atom    1 type  1   force =     0.00081052    0.00013356    0.00050452
     atom    2 type  1   force =     0.00067118    0.00057083    0.00138234
     atom    3 type  1   force =    -0.00059980    0.00092595    0.00025527
     atom    4 type  1   force =     0.00216600   -0.00015528   -0.00061471
     atom    5 type  1   force =     0.00024840   -0.00003657   -0.00045437
     atom    6 type  1   force =    -0.00054441   -0.00153214   -0.00080440
     atom    7 type  1   force =    -0.00104388   -0.00064947   -0.00083034
     atom    8 type  1   force =     0.00002575   -0.00004019   -0.00026870
     atom    9 type  2   force =     0.00072430   -0.00030427    0.00047479
     atom   10 type  2   force =    -0.00141801    0.00036053   -0.00000737
     atom   11 type  2   force =    -0.00065538    0.00009713    0.00034603
     atom   12 type  2   force =    -0.00283100    0.00089561    0.00045533
     atom   13 type  2   force =     0.00040787   -0.00033184    0.00023945
     atom   14 type  2   force =     0.00059467   -0.00005663    0.00072152
     atom   15 type  2   force =     0.00107585    0.00025753    0.00084922
     atom   16 type  2   force =    -0.00010802    0.00074475    0.00020990
     atom   17 type  2   force =    -0.00058244   -0.00015738    0.00070793
     atom   18 type  2   force =    -0.00019810   -0.00122119   -0.00124981
     atom   19 type  2   force =     0.00041322   -0.00055704    0.00004107
     atom   20 type  2   force =     0.00100932   -0.00001525   -0.00107437
     atom   21 type  2   force =     0.00025889   -0.00004615    0.00035346
     atom   22 type  2   force =    -0.00040618    0.00092343    0.00048191
     atom   23 type  2   force =     0.00080584    0.00178592    0.00063846
     atom   24 type  2   force =     0.00019948   -0.00118490    0.00098848
     atom   25 type  2   force =    -0.00001616   -0.00057672    0.00036210
     atom   26 type  2   force =    -0.00001792   -0.00039915   -0.00175435
     atom   27 type  2   force =     0.00056032    0.00011637   -0.00029047
     atom   28 type  2   force =    -0.00129688    0.00003455   -0.00097540
     atom   29 type  2   force =     0.00025085    0.00008505    0.00076916
     atom   30 type  2   force =     0.00001480   -0.00011871    0.00016541
     atom   31 type  2   force =     0.00045762    0.00027206    0.00055944
     atom   32 type  2   force =    -0.00028448   -0.00008480   -0.00045123
     atom   33 type  3   force =    -0.00123153   -0.00032941   -0.00142234
     atom   34 type  3   force =    -0.00032483    0.00007255   -0.00016641
     atom   35 type  3   force =     0.00120896    0.00008626   -0.00007040
     atom   36 type  3   force =    -0.00005591    0.00030292    0.00055118
     atom   37 type  3   force =    -0.00148950   -0.00037646   -0.00140812
     atom   38 type  3   force =    -0.00081103    0.00004083   -0.00045189
     atom   39 type  3   force =    -0.00089783   -0.00039015    0.00115971
     atom   40 type  3   force =     0.00042777    0.00015596    0.00024543
     atom   41 type  4   force =     0.00046877    0.00097067    0.00106856
     atom   42 type  4   force =     0.00049920   -0.00037094    0.00023621
     atom   43 type  4   force =    -0.00112558    0.00029878   -0.00067924
     atom   44 type  4   force =     0.00035269   -0.00016395   -0.00052520
     atom   45 type  4   force =     0.00156475   -0.00010244    0.00059712
     atom   46 type  4   force =     0.00072912    0.00005725    0.00012035
     atom   47 type  4   force =     0.00072235    0.00060852   -0.00089709
     atom   48 type  4   force =     0.00003481   -0.00022428   -0.00018952
     atom   49 type  4   force =     0.00050073    0.00015478    0.00046723
     atom   50 type  4   force =     0.00002349    0.00017573    0.00004361
     atom   51 type  4   force =    -0.00008831    0.00008073    0.00013096
     atom   52 type  4   force =    -0.00011350   -0.00027326   -0.00024417
     atom   53 type  4   force =     0.00035511   -0.00094403    0.00085840
     atom   54 type  4   force =    -0.00000927    0.00017339    0.00030619
     atom   55 type  4   force =     0.00054546   -0.00009734   -0.00019809
     atom   56 type  4   force =    -0.00022316    0.00033416   -0.00032248
     atom   57 type  5   force =     0.00010005    0.00029759   -0.00019403
     atom   58 type  5   force =     0.00028906   -0.00025161   -0.00000740
     atom   59 type  5   force =     0.00051396    0.00027568    0.00026422
     atom   60 type  5   force =     0.00019179   -0.00039359   -0.00006549
     atom   61 type  5   force =    -0.00022287   -0.00010644    0.00027948
     atom   62 type  5   force =    -0.00035262   -0.00019140   -0.00000364
     atom   63 type  5   force =     0.00040470   -0.00009779    0.00004403
     atom   64 type  5   force =     0.00031545   -0.00044335    0.00002608
     atom   65 type  5   force =    -0.00044136    0.00002566   -0.00057099
     atom   66 type  5   force =    -0.00025518    0.00001704    0.00002419
     atom   67 type  5   force =    -0.00064135    0.00052125   -0.00094660
     atom   68 type  5   force =    -0.00004419    0.00018630   -0.00009767
     atom   69 type  5   force =    -0.00006707   -0.00036227   -0.00104788
     atom   70 type  5   force =     0.00043539    0.00033338    0.00092928
     atom   71 type  5   force =    -0.00000902   -0.00024611    0.00032377
     atom   72 type  5   force =    -0.00034356    0.00039346   -0.00009502
     atom   73 type  5   force =     0.00001473   -0.00064873   -0.00032507
     atom   74 type  5   force =     0.00032559   -0.00030075    0.00000569
     atom   75 type  5   force =     0.00050211    0.00010034   -0.00032868
     atom   76 type  5   force =     0.00072528    0.00006737   -0.00064826
     atom   77 type  5   force =     0.00071976   -0.00005740   -0.00056463
     atom   78 type  5   force =     0.00042803   -0.00089243   -0.00019697
     atom   79 type  5   force =     0.00029879   -0.00003921   -0.00072343
     atom   80 type  5   force =     0.00047173   -0.00045824   -0.00018898
     atom   81 type  5   force =    -0.00043998    0.00081872    0.00031138
     atom   82 type  5   force =    -0.00016513    0.00061337    0.00034489
     atom   83 type  5   force =    -0.00023143   -0.00034624   -0.00026514
     atom   84 type  5   force =    -0.00058087    0.00027748    0.00002500
     atom   85 type  5   force =     0.00009469    0.00005014    0.00067113
     atom   86 type  5   force =     0.00022944    0.00062028   -0.00018459
     atom   87 type  5   force =    -0.00075957    0.00011397    0.00066066
     atom   88 type  5   force =    -0.00015989    0.00050074   -0.00025507
     atom   89 type  5   force =     0.00013572   -0.00027059   -0.00014705
     atom   90 type  5   force =    -0.00004396    0.00018274   -0.00022366
     atom   91 type  5   force =     0.00035555   -0.00015080    0.00055177
     atom   92 type  5   force =    -0.00076299    0.00048424    0.00039969
     atom   93 type  5   force =    -0.00098355   -0.00040495    0.00005601
     atom   94 type  5   force =    -0.00056135   -0.00035742    0.00028374
     atom   95 type  5   force =    -0.00093274   -0.00002670    0.00064198
     atom   96 type  5   force =    -0.00030808    0.00019039    0.00029700

     Total force =     0.006907     Total SCF correction =     0.000086


     Computing stress (Cartesian axis) and pressure

          total   stress  (Ry/bohr**3)                   (kbar)     P=   -0.10
  -0.00000278   0.00000138  -0.00000119         -0.41      0.20     -0.17
   0.00000138   0.00000023   0.00000065          0.20      0.03      0.10
  -0.00000119   0.00000065   0.00000053         -0.17      0.10      0.08


     number of scf cycles    =   8
     number of bfgs steps    =   7

     enthalpy old            =  -16707.4788028350 Ry
     enthalpy new            =  -16707.4788534088 Ry

     CASE: enthalpy_new < enthalpy_old

     new trust radius        =       0.0084229250 bohr
     new conv_thr            =       0.0000000051 Ry

     new unit-cell volume =  13940.67461 a.u.^3 (  2065.79482 Ang^3 )
     density =      4.07526 g/cm^3

CELL_PARAMETERS (angstrom)
  12.674417197   0.000000000   0.000000000
   0.000000000  12.894747259   0.000000000
   0.000000000   0.000000000  12.639978958

ATOMIC_POSITIONS (crystal)
Pb      -0.017919245  -0.025333182   0.009907256    0   0   0
Pb       0.479141497  -0.015309899   0.002440253    0   0   0
Pb      -0.019919125   0.478557324   0.008910468    0   0   0
Pb       0.023066357  -0.014286739   0.511896417    0   0   0
Pb       0.481794014   0.482893928  -0.002909891    0   0   0
Pb       0.023171772   0.482079104   0.506147720    0   0   0
Pb       0.524913543  -0.012748532   0.499723336    0   0   0
Pb       0.523134474   0.487085512   0.499961247    0   0   0
I        0.232236978  -0.009253433  -0.046227615    0   0   0
I        0.733061929  -0.007372028   0.045707250    0   0   0
I        0.232839918   0.490700478   0.049148251    0   0   0
I        0.274277431  -0.036510733   0.531304924    0   0   0
I        0.733145861   0.494019714  -0.054440609    0   0   0
I        0.271482128   0.479689227   0.459108662    0   0   0
I        0.772752003  -0.021860656   0.475093126    0   0   0
I        0.771918271   0.467485562   0.540210815    0   0   0
I       -0.030127446   0.232837982   0.006744798    0   0   0
I        0.469482873   0.236283899   0.005330564    0   0   0
I       -0.030516659   0.732350478   0.007978223    0   0   0
I        0.040608141   0.231778658   0.505624520    0   0   0
I        0.462821605   0.735980758   0.001351499    0   0   0
I        0.030645486   0.729915675   0.512700543    0   0   0
I        0.532766645   0.233522485   0.503420708    0   0   0
I        0.540200289   0.734504180   0.491575923    0   0   0
I        0.034448085  -0.029530743   0.257968751    0   0   0
I        0.459737787  -0.006562972   0.252997863    0   0   0
I       -0.049964260   0.483640634   0.258646227    0   0   0
I       -0.043267511  -0.013820069   0.758623122    0   0   0
I        0.551206169   0.479392775   0.245530304    0   0   0
I        0.047578718   0.477534865   0.758079514    0   0   0
I        0.531343505  -0.024480474   0.753844921    0   0   0
I        0.455054883   0.474287192   0.746797467    0   0   0
C        0.234666006   0.256131079   0.248205448
C        0.763244522   0.254107603   0.275187810
C        0.251506719   0.724587007   0.303590821
C        0.256329321   0.252400116   0.732756252
C        0.748317366   0.780903050   0.252140803
C        0.253626396   0.764073618   0.752320727
C        0.734887227   0.255615197   0.756603197
C        0.759335108   0.755011628   0.735932880
N        0.204225710   0.195471693   0.170483826
N        0.692735998   0.236303590   0.201181811
N        0.170587759   0.692160397   0.247624570
N        0.184541985   0.232397211   0.804942871
N        0.676058686   0.729920229   0.198753124
N        0.192528824   0.717120022   0.821288994
N        0.703600037   0.200769476   0.838390563
N        0.685410852   0.745026519   0.808073692
N        0.316166466   0.238620011   0.309713320
N        0.845434712   0.195130117   0.294768683
N        0.350268119   0.720548189   0.272553358
N        0.337445403   0.192642089   0.711132834
N        0.825798990   0.737520460   0.304913218
N        0.319568084   0.716677537   0.688379766
N        0.816465443   0.233077569   0.696771002
N        0.838639400   0.690496837   0.723669802
H        0.189123852   0.326593718   0.262726433
H        0.752662892   0.323313704   0.323966154
H        0.235135397   0.758289152   0.381191827
H        0.248181808   0.324333227   0.687866984
H        0.743958853   0.865395789   0.252637843
H        0.249230054   0.848462866   0.747221952
H        0.690056131   0.325326639   0.736833016
H        0.754712664   0.821673599   0.682682985
H        0.242021143   0.127893756   0.152480498
H        0.696756927   0.173024332   0.152240973
H        0.179667479   0.652236902   0.178045495
H        0.187151339   0.166966922   0.851020893
H        0.669850034   0.650696241   0.200299645
H        0.187278318   0.638139749   0.826234448
H        0.741236085   0.134868940   0.862488061
H        0.684911105   0.684215660   0.860275608
H        0.139492665   0.214480560   0.125873860
H        0.631597533   0.287146614   0.191951338
H        0.096927101   0.697054502   0.279086353
H        0.124082229   0.283603628   0.816143769
H        0.619803569   0.768644995   0.156609781
H        0.143187861   0.758577322   0.869126254
H        0.638990059   0.223072714   0.881511461
H        0.626012184   0.798659528   0.811212014
H        0.363315924   0.174413236   0.301437696
H        0.861660260   0.128711231   0.253873669
H        0.372431393   0.695199842   0.199198088
H        0.350839717   0.123760386   0.748529204
H        0.840422970   0.659315277   0.303395699
H        0.334541238   0.638641606   0.692883079
H        0.862749855   0.168927907   0.709267026
H        0.847445850   0.625911117   0.769497575
H        0.332631941   0.290146980   0.368814888
H        0.896626447   0.214206248   0.354418184
H        0.408475617   0.743939609   0.323349406
H        0.390415188   0.213490976   0.653556448
H        0.877066062   0.782949298   0.346385784
H        0.363655749   0.758807660   0.636172898
H        0.834007128   0.280405822   0.634379388
H        0.893267006   0.703271661   0.665416095



     Writing output data file FAPbI83_vcrelax.save/
     NEW-OLD atomic charge density approx. for the potential
     extrapolated charge  432.27429, renormalised to  432.00000

     total cpu time spent up to now is   233673.1 secs

     Self-consistent Calculation

     iteration #  1     ecut=   120.00 Ry     beta= 0.70
     Davidson diagonalization with overlap
     ethr =  1.00E-06,  avg # of iterations =  3.0

     Threshold (ethr) on eigenvalues was too large:
     Diagonalizing with lowered threshold

     Davidson diagonalization with overlap
     ethr =  6.77E-08,  avg # of iterations =  2.6

     total cpu time spent up to now is   256150.8 secs

     total energy              =  -16707.47841885 Ry
     Harris-Foulkes estimate   =  -16707.03295400 Ry
     estimated scf accuracy    <       0.00030877 Ry

     Maximum CPU time exceeded

     max_seconds     =  256000.00
     elapsed seconds =  256146.36
     Calculation stopped in scf loop at iteration #     1

     Writing output data file FAPbI83_vcrelax.save/

     init_run     :   1370.03s CPU   1505.95s WALL (       1 calls)
     electrons    : 221287.68s CPU 239305.22s WALL (       9 calls)
     update_pot   :    254.04s CPU    275.30s WALL (       8 calls)
     forces       :   5692.73s CPU   6107.16s WALL (       8 calls)
     stress       :   6870.87s CPU   7423.44s WALL (       8 calls)

     Called by init_run:
     wfcinit      :   1333.79s CPU   1465.53s WALL (       1 calls)
     potinit      :     11.57s CPU     12.68s WALL (       1 calls)
     hinit0       :     19.65s CPU     20.61s WALL (       1 calls)

     Called by electrons:
     c_bands      : 199702.45s CPU 215260.22s WALL (      74 calls)
     sum_band     :  21237.11s CPU  23650.32s WALL (      74 calls)
     v_of_rho     :     27.69s CPU     31.75s WALL (      78 calls)
     newd         :    200.38s CPU    238.03s WALL (      78 calls)
     PAW_pot      :     61.59s CPU     65.53s WALL (      86 calls)
     mix_rho      :      5.52s CPU      5.90s WALL (      74 calls)

     Called by c_bands:
     init_us_2    :    226.07s CPU    253.83s WALL (    5536 calls)
     cegterg      : 197183.35s CPU 212566.34s WALL (    2368 calls)

     Called by sum_band:
     sum_band:bec :     18.19s CPU     19.28s WALL (    2624 calls)
     addusdens    :    139.71s CPU    174.89s WALL (      74 calls)

     Called by *egterg:
     h_psi        : 100829.69s CPU 110890.42s WALL (   10335 calls)
     s_psi        :  26657.25s CPU  27981.42s WALL (   10335 calls)
     g_psi        :     36.90s CPU     39.21s WALL (    7935 calls)
     cdiaghg      :   5807.74s CPU   6245.32s WALL (    9887 calls)

     Called by h_psi:
     h_psi:pot    : 100782.35s CPU 110727.09s WALL (   10335 calls)
     h_psi:calbec :  34446.77s CPU  36319.33s WALL (   10335 calls)
     vloc_psi     :  39655.43s CPU  46320.55s WALL (   10335 calls)
     add_vuspsi   :  26679.97s CPU  28087.09s WALL (   10335 calls)

     General routines
     calbec       :  55452.43s CPU  58682.18s WALL (   14239 calls)
     fft          :     98.98s CPU    108.28s WALL (    1072 calls)
     ffts         :      2.21s CPU      2.90s WALL (      74 calls)
     fftw         :  46621.08s CPU  54851.31s WALL ( 3396900 calls)
     davcio       :      0.03s CPU     27.71s WALL (      34 calls)

     Parallel routines
     fft_scatt_xy :   1704.25s CPU   1770.10s WALL ( 3398046 calls)
     fft_scatt_yz :  37186.74s CPU  45045.00s WALL ( 3398046 calls)

     PWSCF        :   2d17h48m CPU   2d23h 9m WALL


   This run was terminated on:   0:23:23   4Aug2020            

=------------------------------------------------------------------------------=
   JOB DONE.
=------------------------------------------------------------------------------=
