
     Program PWSCF v.6.4 starts on 21Apr2020 at 20:37:10 

     This program is part of the open-source Quantum ESPRESSO suite
     for quantum simulation of materials; please cite
         "P. Giannozzi et al., J. Phys.:Condens. Matter 21 395502 (2009);
         "P. Giannozzi et al., J. Phys.:Condens. Matter 29 465901 (2017);
          URL http://www.quantum-espresso.org", 
     in publications or presentations arising from this work. More details at
     http://www.quantum-espresso.org/quote

     Parallel version (MPI), running on    32 processors

     MPI processes distributed on     1 nodes
     R & G space division:  proc/nbgrp/npool/nimage =      32
     Waiting for input...
     Reading input from standard input

     Current dimensions of program PWSCF are:
     Max number of different atomic species (ntypx) = 10
     Max number of k-points (npk) =  40000
     Max angular momentum in pseudopotentials (lmaxx) =  3
               file Pb.pbe-dn-kjpaw_psl.1.0.0.UPF: wavefunction(s)  6S 6P 5D renormalized
               file I.pbe-n-kjpaw_psl.1.0.0.UPF: wavefunction(s)  5S renormalized
               file C.pbe-n-kjpaw_psl.1.0.0.UPF: wavefunction(s)  2S 2P renormalized
               file N.pbe-n-kjpaw_psl.1.0.0.UPF: wavefunction(s)  2S renormalized
               file H.pbe-kjpaw_psl.1.0.0.UPF: wavefunction(s)  1S renormalized

     --------------------------------------------
     Parameters for DFT-D3 Dispersion Correction:
     --------------------------------------------
       Reference C6 values for interpolation: 

         atom   Coordination number   C6
         H          0.912             6.05
         H          0.000            15.18
         C          0.000            98.23
         C          0.987            86.49
         C          1.998            58.72
         C          2.999            51.56
         C          3.984            36.41
         N          0.000            50.54
         N          0.994            44.25
         N          2.014            39.35
         N          2.990            31.16
         I          0.000           703.93
         I          0.997           717.00
         Pb         0.000          1477.63
         Pb         0.938          1266.00
         Pb         1.936          1088.91
         Pb         2.908          1048.37
         Pb         3.910           910.57

       Values used:

         atom   Coordination number  R0_AB[au]  C6      C8
         Pb         5.008            4.041    910.57 144158.17
         Pb         5.061            4.041    910.57 144158.15
         Pb         5.008            4.041    910.57 144158.17
         Pb         5.029            4.041    910.57 144158.16
         Pb         4.993            4.041    910.57 144158.18
         Pb         5.011            4.041    910.57 144158.17
         Pb         5.034            4.041    910.57 144158.16
         Pb         5.007            4.041    910.57 144158.17
         I          2.062            3.532    717.00  65856.00
         I          2.065            3.532    717.00  65856.00
         I          2.026            3.532    717.00  65856.00
         I          2.047            3.532    717.00  65856.00
         I          2.012            3.532    717.00  65856.00
         I          1.990            3.532    717.00  65856.00
         I          2.085            3.532    717.00  65856.00
         I          2.062            3.532    717.00  65856.00
         I          2.076            3.532    717.00  65856.00
         I          2.072            3.532    717.00  65856.00
         I          2.136            3.532    717.00  65856.00
         I          2.071            3.532    717.00  65856.00
         I          2.120            3.532    717.00  65856.00
         I          2.157            3.532    717.00  65856.00
         I          2.100            3.532    717.00  65856.00
         I          2.155            3.532    717.00  65856.00
         I          2.014            3.532    717.00  65856.00
         I          2.077            3.532    717.00  65856.00
         I          2.057            3.532    717.00  65856.00
         I          2.072            3.532    717.00  65856.00
         I          2.025            3.532    717.00  65856.00
         I          2.056            3.532    717.00  65856.00
         I          2.052            3.532    717.00  65856.00
         I          2.034            3.532    717.00  65856.00
         C          3.084            2.750     50.98   1474.34
         C          3.077            2.750     51.01   1475.31
         C          3.079            2.750     51.00   1475.05
         C          3.078            2.750     51.00   1475.14
         C          3.089            2.750     50.95   1473.50
         C          3.090            2.750     50.94   1473.26
         C          3.085            2.750     50.97   1474.16
         C          3.077            2.750     51.01   1475.28
         N          3.107            2.478     31.23    688.98
         N          3.111            2.478     31.23    688.93
         N          3.125            2.478     31.22    688.79
         N          3.115            2.478     31.23    688.89
         N          3.119            2.478     31.22    688.84
         N          3.116            2.478     31.23    688.87
         N          3.103            2.478     31.23    689.03
         N          3.124            2.478     31.22    688.79
         N          3.102            2.478     31.23    689.04
         N          3.116            2.478     31.23    688.88
         N          3.128            2.478     31.22    688.76
         N          3.112            2.478     31.23    688.92
         N          3.122            2.478     31.22    688.82
         N          3.116            2.478     31.23    688.88
         N          3.108            2.478     31.23    688.97
         N          3.125            2.478     31.22    688.78
         H          1.030            2.062      6.16     74.42
         H          1.025            2.062      6.16     74.46
         H          1.023            2.062      6.16     74.48
         H          1.023            2.062      6.16     74.48
         H          1.032            2.062      6.15     74.40
         H          1.031            2.062      6.16     74.41
         H          1.030            2.062      6.16     74.42
         H          1.022            2.062      6.16     74.49
         H          1.037            2.062      6.15     74.35
         H          1.043            2.062      6.15     74.31
         H          1.032            2.062      6.15     74.40
         H          1.069            2.062      6.13     74.11
         H          1.070            2.062      6.13     74.11
         H          1.067            2.062      6.13     74.13
         H          1.054            2.062      6.14     74.22
         H          1.044            2.062      6.15     74.30
         H          1.039            2.062      6.15     74.34
         H          1.036            2.062      6.15     74.36
         H          1.051            2.062      6.14     74.25
         H          1.044            2.062      6.15     74.30
         H          1.042            2.062      6.15     74.32
         H          1.042            2.062      6.15     74.31
         H          1.034            2.062      6.15     74.39
         H          1.046            2.062      6.15     74.28
         H          1.052            2.062      6.14     74.23
         H          1.038            2.062      6.15     74.35
         H          1.034            2.062      6.15     74.38
         H          1.027            2.062      6.16     74.45
         H          1.059            2.062      6.14     74.19
         H          1.058            2.062      6.14     74.19
         H          1.053            2.062      6.14     74.23
         H          1.030            2.062      6.16     74.42
         H          1.037            2.062      6.15     74.36
         H          1.043            2.062      6.15     74.31
         H          1.044            2.062      6.15     74.30
         H          1.058            2.062      6.14     74.19
         H          1.041            2.062      6.15     74.33
         H          1.043            2.062      6.15     74.30
         H          1.039            2.062      6.15     74.34
         H          1.054            2.062      6.14     74.22

         Molecular C6 ( Ry / a.u.^6 ) =   1270511.61


     Subspace diagonalization in iterative solution of the eigenvalue problem:
     a serial algorithm will be used


     Parallelization info
     --------------------
     sticks:   dense  smooth     PW     G-vecs:    dense   smooth      PW
     Min         447     447    116                40307    40307    5333
     Max         448     448    118                40314    40314    5336
     Sum       14329   14329   3721              1289951  1289951  170709



     bravais-lattice index     =            1
     lattice parameter (alat)  =      23.7198  a.u.
     unit-cell volume          =   13345.5162 (a.u.)^3
     number of atoms/cell      =           96
     number of atomic types    =            5
     number of electrons       =       432.00
     number of Kohn-Sham states=          216
     kinetic-energy cutoff     =      80.0000  Ry
     charge density cutoff     =     320.0000  Ry
     convergence threshold     =      1.0E-07
     mixing beta               =       0.7000
     number of iterations used =            8  plain     mixing
     Exchange-correlation      = SLA PW PBX PBC ( 1  4  3  4 0 0)
     nstep                     =          100


     celldm(1)=  23.719842  celldm(2)=   0.000000  celldm(3)=   0.000000
     celldm(4)=   0.000000  celldm(5)=   0.000000  celldm(6)=   0.000000

     crystal axes: (cart. coord. in units of alat)
               a(1) = (   1.000000   0.000000   0.000000 )  
               a(2) = (   0.000000   1.000000   0.000000 )  
               a(3) = (   0.000000   0.000000   1.000000 )  

     reciprocal axes: (cart. coord. in units 2 pi/alat)
               b(1) = (  1.000000  0.000000  0.000000 )  
               b(2) = (  0.000000  1.000000  0.000000 )  
               b(3) = (  0.000000  0.000000  1.000000 )  


     PseudoPot. # 1 for Pb read from file:
     ../Pseudopotential/Pb.pbe-dn-kjpaw_psl.1.0.0.UPF
     MD5 check sum: 684fc8fbce61a260853528575e4d9ab7
     Pseudo is Projector augmented-wave + core cor, Zval = 14.0
     Generated using "atomic" code by A. Dal Corso v.6.3
     Shape of augmentation charge: PSQ
     Using radial grid of 1281 points,  6 beta functions with: 
                l(1) =   0
                l(2) =   0
                l(3) =   1
                l(4) =   1
                l(5) =   2
                l(6) =   2
     Q(r) pseudized with 0 coefficients 


     PseudoPot. # 2 for I  read from file:
     ../Pseudopotential/I.pbe-n-kjpaw_psl.1.0.0.UPF
     MD5 check sum: cd3d296c3308a581e1559a0c8a554cb5
     Pseudo is Projector augmented-wave + core cor, Zval =  7.0
     Generated using "atomic" code by A. Dal Corso v.6.3
     Shape of augmentation charge: PSQ
     Using radial grid of 1247 points,  6 beta functions with: 
                l(1) =   0
                l(2) =   0
                l(3) =   1
                l(4) =   1
                l(5) =   2
                l(6) =   2
     Q(r) pseudized with 0 coefficients 


     PseudoPot. # 3 for C  read from file:
     ../Pseudopotential/C.pbe-n-kjpaw_psl.1.0.0.UPF
     MD5 check sum: 5f16ad9a65e90284d1d834d4ab3b0f7d
     Pseudo is Projector augmented-wave + core cor, Zval =  4.0
     Generated using "atomic" code by A. Dal Corso v.6.3
     Shape of augmentation charge: PSQ
     Using radial grid of 1073 points,  4 beta functions with: 
                l(1) =   0
                l(2) =   0
                l(3) =   1
                l(4) =   1
     Q(r) pseudized with 0 coefficients 


     PseudoPot. # 4 for N  read from file:
     ../Pseudopotential/N.pbe-n-kjpaw_psl.1.0.0.UPF
     MD5 check sum: 14c48229446f9f2d411169a3abcbc3fa
     Pseudo is Projector augmented-wave + core cor, Zval =  5.0
     Generated using "atomic" code by A. Dal Corso v.6.3
     Shape of augmentation charge: PSQ
     Using radial grid of 1085 points,  4 beta functions with: 
                l(1) =   0
                l(2) =   0
                l(3) =   1
                l(4) =   1
     Q(r) pseudized with 0 coefficients 


     PseudoPot. # 5 for H  read from file:
     ../Pseudopotential/H.pbe-kjpaw_psl.1.0.0.UPF
     MD5 check sum: d81a744832360e4a8af0b0b5b123bc2a
     Pseudo is Projector augmented-wave, Zval =  1.0
     Generated using "atomic" code by A. Dal Corso v.6.3MaX
     Shape of augmentation charge: PSQ
     Using radial grid of  929 points,  2 beta functions with: 
                l(1) =   0
                l(2) =   0
     Q(r) pseudized with 0 coefficients 


     atomic species   valence    mass     pseudopotential
        Pb            14.00   207.97600     Pb( 1.00)
        I              7.00   126.90400     I ( 1.00)
        C              4.00    12.00000     C ( 1.00)
        N              5.00    14.00300     N ( 1.00)
        H              1.00     1.00700     H ( 1.00)

     No symmetry found



   Cartesian axes

     site n.     atom                  positions (alat units)
         1           Pb  tau(   1) = (  -0.0128149  -0.0139027   0.0079949  )
         2           Pb  tau(   2) = (   0.4895837  -0.0145129   0.0025968  )
         3           Pb  tau(   3) = (  -0.0051776   0.4871215   0.0046367  )
         4           Pb  tau(   4) = (   0.0199906  -0.0102377   0.5103651  )
         5           Pb  tau(   5) = (   0.4922186   0.4847498   0.0079246  )
         6           Pb  tau(   6) = (   0.0183082   0.4895679   0.5048593  )
         7           Pb  tau(   7) = (   0.5204643  -0.0129263   0.5011392  )
         8           Pb  tau(   8) = (   0.5209655   0.4892854   0.5103660  )
         9           I   tau(   9) = (   0.2406404  -0.0195444  -0.0340210  )
        10           I   tau(  10) = (   0.7402642  -0.0202622   0.0450732  )
        11           I   tau(  11) = (   0.2418753   0.4923306   0.0565901  )
        12           I   tau(  12) = (   0.2684764  -0.0287017   0.5332276  )
        13           I   tau(  13) = (   0.7422857   0.4849297  -0.0358015  )
        14           I   tau(  14) = (   0.2719420   0.4953080   0.4678519  )
        15           I   tau(  15) = (   0.7684719  -0.0144483   0.4696315  )
        16           I   tau(  16) = (   0.7721600   0.4814485   0.5477678  )
        17           I   tau(  17) = (  -0.0363331   0.2361677   0.0019453  )
        18           I   tau(  18) = (   0.4633505   0.2331090   0.0105448  )
        19           I   tau(  19) = (   0.0002760   0.7341550  -0.0014979  )
        20           I   tau(  20) = (   0.0507026   0.2375226   0.5020563  )
        21           I   tau(  21) = (   0.4928644   0.7336828   0.0056249  )
        22           I   tau(  22) = (  -0.0004650   0.7385788   0.5048335  )
        23           I   tau(  23) = (   0.5393129   0.2361294   0.5110910  )
        24           I   tau(  24) = (   0.5279576   0.7367607   0.5086938  )
        25           I   tau(  25) = (   0.0457440  -0.0289891   0.2543236  )
        26           I   tau(  26) = (   0.4599439  -0.0304962   0.2547981  )
        27           I   tau(  27) = (  -0.0382931   0.4710927   0.2581666  )
        28           I   tau(  28) = (  -0.0405326  -0.0291985   0.7544733  )
        29           I   tau(  29) = (   0.5502821   0.4708489   0.2578761  )
        30           I   tau(  30) = (   0.0531443   0.4724848   0.7572472  )
        31           I   tau(  31) = (   0.5467803  -0.0280485   0.7566787  )
        32           I   tau(  32) = (   0.4586165   0.4681741   0.7579462  )
        33           C   tau(  33) = (   0.2487358   0.2782010   0.2592560  )
        34           C   tau(  34) = (   0.7574840   0.2473302   0.2580849  )
        35           C   tau(  35) = (   0.2536276   0.7446747   0.2633496  )
        36           C   tau(  36) = (   0.2519102   0.2449574   0.7443188  )
        37           C   tau(  37) = (   0.7576594   0.7819658   0.2538071  )
        38           C   tau(  38) = (   0.2585207   0.7829540   0.7495834  )
        39           C   tau(  39) = (   0.7587650   0.2734237   0.7551306  )
        40           C   tau(  40) = (   0.7547449   0.7432051   0.7515683  )
        41           N   tau(  41) = (   0.1716871   0.2328177   0.2056890  )
        42           N   tau(  42) = (   0.6740743   0.1963726   0.2208466  )
        43           N   tau(  43) = (   0.1620496   0.6957318   0.2758228  )
        44           N   tau(  44) = (   0.1728767   0.2070202   0.8012120  )
        45           N   tau(  45) = (   0.6653289   0.7346780   0.2665153  )
        46           N   tau(  46) = (   0.1665698   0.7388795   0.7714142  )
        47           N   tau(  47) = (   0.6812379   0.2251960   0.8061567  )
        48           N   tau(  48) = (   0.6647423   0.7004074   0.7829799  )
        49           N   tau(  49) = (   0.3307377   0.2284964   0.3008289  )
        50           N   tau(  50) = (   0.8438053   0.2014655   0.2946965  )
        51           N   tau(  51) = (   0.3437262   0.6964430   0.2415591  )
        52           N   tau(  52) = (   0.3368003   0.1903560   0.7172429  )
        53           N   tau(  53) = (   0.8471511   0.7338902   0.2295328  )
        54           N   tau(  54) = (   0.3457538   0.7314131   0.7243908  )
        55           N   tau(  55) = (   0.8334642   0.2253961   0.7003027  )
        56           N   tau(  56) = (   0.8442723   0.6907149   0.7390686  )
        57           H   tau(  57) = (   0.2448665   0.3641532   0.2707237  )
        58           H   tau(  58) = (   0.7542617   0.3341249   0.2584152  )
        59           H   tau(  59) = (   0.2550575   0.8312451   0.2713517  )
        60           H   tau(  60) = (   0.2477053   0.3281720   0.7191727  )
        61           H   tau(  61) = (   0.7601394   0.8679962   0.2642558  )
        62           H   tau(  62) = (   0.2623413   0.8696765   0.7513274  )
        63           H   tau(  63) = (   0.7606315   0.3601347   0.7580696  )
        64           H   tau(  64) = (   0.7555784   0.8286803   0.7354936  )
        65           H   tau(  65) = (   0.1655057   0.1523695   0.1949547  )
        66           H   tau(  66) = (   0.6738891   0.1157827   0.2099384  )
        67           H   tau(  67) = (   0.1547107   0.6149482   0.2711411  )
        68           H   tau(  68) = (   0.1753491   0.1320681   0.8339352  )
        69           H   tau(  69) = (   0.6535322   0.6540993   0.2598495  )
        70           H   tau(  70) = (   0.1535648   0.6578696   0.7697980  )
        71           H   tau(  71) = (   0.6680792   0.1448865   0.8010932  )
        72           H   tau(  72) = (   0.6599228   0.6226867   0.8065965  )
        73           H   tau(  73) = (   0.1129115   0.2771267   0.1715609  )
        74           H   tau(  74) = (   0.6114537   0.2365492   0.1884963  )
        75           H   tau(  75) = (   0.0991204   0.7379021   0.3050703  )
        76           H   tau(  76) = (   0.1116433   0.2554908   0.8230982  )
        77           H   tau(  77) = (   0.6023022   0.7785596   0.2922341  )
        78           H   tau(  78) = (   0.1052165   0.7860277   0.7954434  )
        79           H   tau(  79) = (   0.6275667   0.2682695   0.8492501  )
        80           H   tau(  80) = (   0.6021700   0.7486355   0.8015541  )
        81           H   tau(  81) = (   0.3435448   0.1487905   0.2906922  )
        82           H   tau(  82) = (   0.8505599   0.1205445   0.3015179  )
        83           H   tau(  83) = (   0.3480839   0.6161633   0.2303917  )
        84           H   tau(  84) = (   0.3453701   0.1117479   0.7354761  )
        85           H   tau(  85) = (   0.8546187   0.6531913   0.2211841  )
        86           H   tau(  86) = (   0.3513045   0.6501813   0.7218284  )
        87           H   tau(  87) = (   0.8424075   0.1444638   0.6981887  )
        88           H   tau(  88) = (   0.8490943   0.6100486   0.7475047  )
        89           H   tau(  89) = (   0.3854700   0.2683293   0.3457368  )
        90           H   tau(  90) = (   0.9033399   0.2463949   0.3271226  )
        91           H   tau(  91) = (   0.4086937   0.7408129   0.2218904  )
        92           H   tau(  92) = (   0.3948765   0.2233698   0.6707039  )
        93           H   tau(  93) = (   0.9130715   0.7793642   0.2160703  )
        94           H   tau(  94) = (   0.4118814   0.7726637   0.7015063  )
        95           H   tau(  95) = (   0.8894650   0.2683729   0.6600168  )
        96           H   tau(  96) = (   0.9070312   0.7282588   0.7036574  )

     number of k points=    32
                       cart. coord. in units 2pi/alat
        k(    1) = (   0.1250000   0.1250000   0.1250000), wk =   0.0625000
        k(    2) = (   0.1250000   0.1250000   0.3750000), wk =   0.0625000
        k(    3) = (   0.1250000   0.3750000   0.3750000), wk =   0.0625000
        k(    4) = (   0.3750000   0.3750000   0.3750000), wk =   0.0625000
        k(    5) = (  -0.1250000  -0.1250000   0.1250000), wk =   0.0625000
        k(    6) = (  -0.1250000   0.1250000  -0.1250000), wk =   0.0625000
        k(    7) = (   0.1250000  -0.1250000  -0.1250000), wk =   0.0625000
        k(    8) = (  -0.1250000  -0.1250000   0.3750000), wk =   0.0625000
        k(    9) = (  -0.1250000   0.1250000  -0.3750000), wk =   0.0625000
        k(   10) = (   0.1250000  -0.1250000  -0.3750000), wk =   0.0625000
        k(   11) = (   0.3750000  -0.1250000   0.1250000), wk =   0.0625000
        k(   12) = (  -0.3750000  -0.1250000  -0.1250000), wk =   0.0625000
        k(   13) = (   0.3750000   0.1250000  -0.1250000), wk =   0.0625000
        k(   14) = (  -0.3750000   0.1250000   0.1250000), wk =   0.0625000
        k(   15) = (  -0.1250000   0.3750000   0.1250000), wk =   0.0625000
        k(   16) = (  -0.1250000  -0.3750000  -0.1250000), wk =   0.0625000
        k(   17) = (   0.1250000   0.3750000  -0.1250000), wk =   0.0625000
        k(   18) = (   0.1250000  -0.3750000   0.1250000), wk =   0.0625000
        k(   19) = (  -0.1250000  -0.3750000   0.3750000), wk =   0.0625000
        k(   20) = (  -0.1250000   0.3750000  -0.3750000), wk =   0.0625000
        k(   21) = (   0.1250000  -0.3750000  -0.3750000), wk =   0.0625000
        k(   22) = (   0.3750000   0.1250000  -0.3750000), wk =   0.0625000
        k(   23) = (  -0.3750000  -0.1250000  -0.3750000), wk =   0.0625000
        k(   24) = (   0.3750000  -0.1250000   0.3750000), wk =   0.0625000
        k(   25) = (  -0.3750000   0.1250000   0.3750000), wk =   0.0625000
        k(   26) = (   0.3750000  -0.3750000   0.1250000), wk =   0.0625000
        k(   27) = (  -0.3750000  -0.3750000  -0.1250000), wk =   0.0625000
        k(   28) = (   0.3750000   0.3750000  -0.1250000), wk =   0.0625000
        k(   29) = (  -0.3750000   0.3750000   0.1250000), wk =   0.0625000
        k(   30) = (  -0.3750000  -0.3750000   0.3750000), wk =   0.0625000
        k(   31) = (  -0.3750000   0.3750000  -0.3750000), wk =   0.0625000
        k(   32) = (   0.3750000  -0.3750000  -0.3750000), wk =   0.0625000

     Dense  grid:  1289951 G-vectors     FFT dimensions: ( 135, 135, 135)

     Estimated max dynamical RAM per process >     986.37 MB

     Estimated total dynamical RAM >      30.82 GB

     Check: negative core charge=   -0.000002

     Initial potential from superposition of free atoms

     starting charge  431.97851, renormalised to  432.00000
     Starting wfcs are  304 randomized atomic wfcs
     Checking if some PAW data can be deallocated... 

     total cpu time spent up to now is      533.3 secs

     Self-consistent Calculation

     iteration #  1     ecut=    80.00 Ry     beta= 0.70
     Davidson diagonalization with overlap
     ethr =  1.00E-02,  avg # of iterations =  2.0

     total cpu time spent up to now is     1433.3 secs

     total energy              =  -16704.96389818 Ry
     Harris-Foulkes estimate   =  -16709.21123504 Ry
     estimated scf accuracy    <       6.73048160 Ry

     iteration #  2     ecut=    80.00 Ry     beta= 0.70
     Davidson diagonalization with overlap
     ethr =  1.56E-03,  avg # of iterations =  4.0

     total cpu time spent up to now is     2621.3 secs

     total energy              =  -16706.49451771 Ry
     Harris-Foulkes estimate   =  -16708.54730460 Ry
     estimated scf accuracy    <       3.81688685 Ry

     iteration #  3     ecut=    80.00 Ry     beta= 0.70
     Davidson diagonalization with overlap
     ethr =  8.84E-04,  avg # of iterations =  3.0

     total cpu time spent up to now is     3683.7 secs

     total energy              =  -16707.34372805 Ry
     Harris-Foulkes estimate   =  -16707.41130516 Ry
     estimated scf accuracy    <       0.14631427 Ry

     iteration #  4     ecut=    80.00 Ry     beta= 0.70
     Davidson diagonalization with overlap
     ethr =  3.39E-05,  avg # of iterations =  4.0

     total cpu time spent up to now is     5096.7 secs

     total energy              =  -16707.38623887 Ry
     Harris-Foulkes estimate   =  -16707.40539448 Ry
     estimated scf accuracy    <       0.03803076 Ry

     iteration #  5     ecut=    80.00 Ry     beta= 0.70
     Davidson diagonalization with overlap
     ethr =  8.80E-06,  avg # of iterations =  3.0

     total cpu time spent up to now is     6058.0 secs

     total energy              =  -16707.39359153 Ry
     Harris-Foulkes estimate   =  -16707.39447288 Ry
     estimated scf accuracy    <       0.00169785 Ry

     iteration #  6     ecut=    80.00 Ry     beta= 0.70
     Davidson diagonalization with overlap
     ethr =  3.93E-07,  avg # of iterations =  4.0

     total cpu time spent up to now is     7318.6 secs

     total energy              =  -16707.39404797 Ry
     Harris-Foulkes estimate   =  -16707.39452745 Ry
     estimated scf accuracy    <       0.00101713 Ry

     iteration #  7     ecut=    80.00 Ry     beta= 0.70
     Davidson diagonalization with overlap
     ethr =  2.35E-07,  avg # of iterations =  3.7

     total cpu time spent up to now is     8284.0 secs

     total energy              =  -16707.39427446 Ry
     Harris-Foulkes estimate   =  -16707.39433596 Ry
     estimated scf accuracy    <       0.00013930 Ry

     iteration #  8     ecut=    80.00 Ry     beta= 0.70
     Davidson diagonalization with overlap
     ethr =  3.22E-08,  avg # of iterations =  4.0

     total cpu time spent up to now is     9421.8 secs

     total energy              =  -16707.39430799 Ry
     Harris-Foulkes estimate   =  -16707.39431498 Ry
     estimated scf accuracy    <       0.00001595 Ry

     iteration #  9     ecut=    80.00 Ry     beta= 0.70
     Davidson diagonalization with overlap
     ethr =  3.69E-09,  avg # of iterations =  4.0

     total cpu time spent up to now is    10481.8 secs

     total energy              =  -16707.39431151 Ry
     Harris-Foulkes estimate   =  -16707.39431262 Ry
     estimated scf accuracy    <       0.00000229 Ry

     iteration # 10     ecut=    80.00 Ry     beta= 0.70
     Davidson diagonalization with overlap
     ethr =  5.30E-10,  avg # of iterations =  4.0

     total cpu time spent up to now is    11588.6 secs

     total energy              =  -16707.39431207 Ry
     Harris-Foulkes estimate   =  -16707.39431226 Ry
     estimated scf accuracy    <       0.00000044 Ry

     iteration # 11     ecut=    80.00 Ry     beta= 0.70
     Davidson diagonalization with overlap
     ethr =  1.02E-10,  avg # of iterations =  4.0

     total cpu time spent up to now is    12733.1 secs

     End of self-consistent calculation

          k = 0.1250 0.1250 0.1250 (161283 PWs)   bands (ev):

   -17.5882 -17.5868 -17.5820 -17.5511 -17.5427 -17.5249 -17.5146 -17.4791
   -15.3815 -15.3696 -15.3580 -15.3345 -15.3319 -15.3303 -15.2800 -15.2781
   -13.8254 -13.8158 -13.8123 -13.8104 -13.8024 -13.8019 -13.7998 -13.7955
   -13.7932 -13.7853 -13.7825 -13.7787 -13.7755 -13.7727 -13.7693 -13.7692
   -13.7678 -13.7611 -13.7607 -13.7605 -13.7600 -13.7592 -13.7581 -13.7546
   -13.7507 -13.7500 -13.7494 -13.7488 -13.7483 -13.7477 -13.7455 -13.7347
   -13.7340 -13.7332 -13.7282 -13.7220 -13.7199 -13.7132 -13.7128 -13.7026
    -9.5450  -9.5067  -9.4347  -9.4043  -9.3651  -9.3292  -9.3066  -9.2737
    -9.2326  -9.1810  -9.1266  -9.1108  -9.0851  -9.0722  -9.0351  -8.9902
    -8.8948  -8.8634  -8.8376  -8.8121  -8.7743  -8.7466  -8.7406  -8.7164
    -8.6917  -8.6860  -8.6641  -8.6549  -8.6199  -8.5942  -8.4993  -8.4841
    -7.4348  -7.3922  -7.3813  -7.3701  -7.3475  -7.3361  -7.3343  -7.2969
    -6.7923  -6.7454  -6.7393  -6.7313  -6.7254  -6.6914  -6.6699  -6.6541
    -5.5654  -5.1530  -5.1130  -5.1010  -5.0787  -5.0564  -5.0491  -5.0296
    -5.0017  -4.9904  -4.9765  -4.9297  -4.6323  -4.5513  -4.5392  -4.1102
    -3.5435  -3.5178  -3.4901  -3.4664  -3.4626  -3.4531  -3.4427  -3.4084
    -2.9864  -2.9567  -2.9424  -2.9228  -2.9092  -2.9076  -2.8948  -2.8586
    -0.6304  -0.5997  -0.5705  -0.5388  -0.4942  -0.4721  -0.4542  -0.4302
    -0.3615  -0.3334  -0.3007  -0.2309   0.1115   0.1302   0.1412   0.2022
     0.2188   0.2449   0.2966   0.3270   0.6066   0.6479   0.6760   0.7243
     0.7572   0.8013   0.8386   0.8709   0.9145   0.9764   0.9915   1.0340
     1.0601   1.1080   1.1163   1.1646   1.2067   1.2549   1.2764   1.2904
     1.3211   1.3368   1.3468   1.3822   1.3902   1.4120   1.4341   1.4626
     1.4714   1.4828   1.5212   1.5337   1.5519   1.5580   1.5862   1.6039
     1.6311   1.6609   1.6878   1.7315   1.7494   1.7644   1.7870   1.7971
     1.8111   1.8456   1.8713   1.8938   1.9107   1.9432   1.9622   1.9772
     2.0033   2.1394   2.1901   2.2479   2.2910   2.3607   2.3895   2.6335

          k = 0.1250 0.1250 0.3750 (161207 PWs)   bands (ev):

   -17.5882 -17.5868 -17.5820 -17.5511 -17.5427 -17.5249 -17.5146 -17.4791
   -15.3815 -15.3696 -15.3580 -15.3345 -15.3319 -15.3303 -15.2800 -15.2781
   -13.8230 -13.8161 -13.8127 -13.8079 -13.8041 -13.8025 -13.7997 -13.7973
   -13.7933 -13.7854 -13.7825 -13.7787 -13.7755 -13.7708 -13.7693 -13.7692
   -13.7678 -13.7627 -13.7607 -13.7604 -13.7600 -13.7592 -13.7582 -13.7546
   -13.7508 -13.7500 -13.7494 -13.7488 -13.7483 -13.7477 -13.7456 -13.7347
   -13.7340 -13.7332 -13.7282 -13.7220 -13.7199 -13.7132 -13.7128 -13.7026
    -9.5132  -9.4883  -9.4550  -9.4236  -9.3882  -9.3363  -9.3093  -9.2713
    -9.2027  -9.1777  -9.1474  -9.1175  -9.1052  -9.0654  -9.0617  -9.0167
    -8.8415  -8.8278  -8.8160  -8.7966  -8.7631  -8.7472  -8.7351  -8.7174
    -8.6967  -8.6936  -8.6679  -8.6571  -8.6362  -8.6192  -8.4982  -8.4841
    -7.4327  -7.3914  -7.3800  -7.3722  -7.3474  -7.3380  -7.3362  -7.2979
    -6.7922  -6.7444  -6.7398  -6.7313  -6.7255  -6.6914  -6.6699  -6.6541
    -5.4435  -5.2555  -5.1508  -5.0915  -5.0754  -5.0540  -5.0346  -4.9980
    -4.9852  -4.9522  -4.9262  -4.8780  -4.7744  -4.6924  -4.4320  -4.2553
    -3.5417  -3.5116  -3.4964  -3.4658  -3.4616  -3.4564  -3.4444  -3.4087
    -2.9862  -2.9562  -2.9409  -2.9218  -2.9109  -2.9069  -2.8927  -2.8626
    -0.5864  -0.5618  -0.4786  -0.4552  -0.4426  -0.3944  -0.3292  -0.3091
    -0.1757  -0.1525  -0.0787   0.0231   0.1174   0.1339   0.1716   0.1856
     0.2067   0.2250   0.2573   0.3249   0.4062   0.4889   0.5766   0.6419
     0.6865   0.6922   0.7386   0.7551   0.7865   0.8202   0.8436   0.8612
     0.9981   1.0224   1.1359   1.1651   1.2172   1.2462   1.2750   1.2796
     1.2869   1.3222   1.3313   1.3469   1.3865   1.3932   1.4085   1.4484
     1.4864   1.5334   1.5365   1.5681   1.5855   1.5892   1.6381   1.6521
     1.6827   1.6933   1.7055   1.7148   1.7355   1.7464   1.7701   1.7897
     1.8038   1.8340   1.8464   1.8621   1.8761   1.8923   1.9184   1.9446
     1.9843   2.0866   2.1445   2.2002   2.2599   2.2994   2.4044   2.4839

          k = 0.1250 0.3750 0.3750 (161300 PWs)   bands (ev):

   -17.5881 -17.5869 -17.5819 -17.5511 -17.5427 -17.5249 -17.5146 -17.4791
   -15.3815 -15.3696 -15.3580 -15.3344 -15.3320 -15.3303 -15.2799 -15.2782
   -13.8228 -13.8160 -13.8123 -13.8073 -13.8028 -13.8021 -13.7994 -13.7975
   -13.7925 -13.7839 -13.7838 -13.7810 -13.7755 -13.7713 -13.7693 -13.7692
   -13.7678 -13.7632 -13.7607 -13.7604 -13.7600 -13.7593 -13.7586 -13.7546
   -13.7509 -13.7500 -13.7495 -13.7488 -13.7483 -13.7477 -13.7455 -13.7347
   -13.7340 -13.7332 -13.7282 -13.7220 -13.7199 -13.7132 -13.7128 -13.7026
    -9.5111  -9.4867  -9.4549  -9.4191  -9.3873  -9.3330  -9.3139  -9.2767
    -9.1901  -9.1647  -9.1422  -9.1326  -9.1086  -9.0806  -9.0716  -9.0261
    -8.8641  -8.8270  -8.8171  -8.7994  -8.7703  -8.7504  -8.7324  -8.7110
    -8.6903  -8.6826  -8.6627  -8.6445  -8.6139  -8.5798  -8.5263  -8.5086
    -7.4268  -7.3909  -7.3790  -7.3680  -7.3491  -7.3436  -7.3354  -7.2994
    -6.7927  -6.7436  -6.7391  -6.7333  -6.7242  -6.6910  -6.6696  -6.6555
    -5.3062  -5.1661  -5.1304  -5.0917  -5.0755  -5.0597  -5.0414  -5.0290
    -4.9922  -4.9777  -4.9387  -4.8586  -4.8163  -4.6444  -4.6062  -4.4320
    -3.5336  -3.5125  -3.4908  -3.4709  -3.4627  -3.4579  -3.4508  -3.4068
    -2.9865  -2.9571  -2.9382  -2.9215  -2.9143  -2.9056  -2.8927  -2.8626
    -0.4918  -0.4541  -0.4005  -0.3687  -0.2394  -0.2084  -0.1437  -0.0625
    -0.0433   0.0019   0.0203   0.0448   0.1223   0.1630   0.1750   0.2055
     0.2180   0.2422   0.2636   0.3159   0.3879   0.4515   0.5239   0.5661
     0.5991   0.6239   0.6349   0.6864   0.7044   0.7721   0.8023   0.8544
     1.0016   1.0255   1.0519   1.0735   1.1108   1.1244   1.1442   1.1854
     1.2191   1.2347   1.2445   1.2798   1.2878   1.3473   1.3654   1.4183
     1.4624   1.5039   1.5270   1.5428   1.5636   1.5947   1.6294   1.6739
     1.6855   1.6987   1.7161   1.7254   1.7320   1.7569   1.7699   1.8080
     1.8185   1.8356   1.8582   1.8780   1.9030   1.9194   1.9368   1.9529
     2.0129   2.0291   2.0386   2.0652   2.1206   2.1798   2.2174   2.2463

          k = 0.3750 0.3750 0.3750 (161235 PWs)   bands (ev):

   -17.5878 -17.5867 -17.5823 -17.5510 -17.5427 -17.5249 -17.5148 -17.4793
   -15.3808 -15.3661 -15.3587 -15.3343 -15.3338 -15.3303 -15.2802 -15.2797
   -13.8227 -13.8149 -13.8129 -13.8072 -13.8027 -13.8007 -13.7984 -13.7974
   -13.7947 -13.7842 -13.7832 -13.7810 -13.7756 -13.7715 -13.7693 -13.7692
   -13.7678 -13.7632 -13.7607 -13.7604 -13.7600 -13.7595 -13.7591 -13.7546
   -13.7512 -13.7500 -13.7499 -13.7488 -13.7483 -13.7477 -13.7456 -13.7347
   -13.7340 -13.7332 -13.7282 -13.7220 -13.7199 -13.7132 -13.7128 -13.7026
    -9.4840  -9.4563  -9.4455  -9.4089  -9.3872  -9.3632  -9.3575  -9.3239
    -9.1982  -9.1605  -9.1474  -9.1205  -9.1104  -9.0726  -9.0613  -9.0154
    -8.8579  -8.8337  -8.8190  -8.8005  -8.7774  -8.7650  -8.7385  -8.7050
    -8.6730  -8.6559  -8.6365  -8.6139  -8.6075  -8.5950  -8.5555  -8.5299
    -7.4229  -7.3919  -7.3801  -7.3639  -7.3585  -7.3438  -7.3370  -7.3042
    -6.7919  -6.7422  -6.7383  -6.7329  -6.7235  -6.6905  -6.6682  -6.6555
    -5.1834  -5.1154  -5.0884  -5.0639  -5.0558  -5.0319  -5.0214  -5.0084
    -4.9777  -4.9708  -4.9493  -4.9365  -4.8020  -4.7546  -4.7517  -4.5804
    -3.5318  -3.5140  -3.4899  -3.4678  -3.4666  -3.4591  -3.4503  -3.4075
    -2.9788  -2.9644  -2.9313  -2.9179  -2.9162  -2.9088  -2.8959  -2.8666
    -0.2714  -0.2491  -0.1923  -0.1587  -0.1296  -0.0943  -0.0488  -0.0307
    -0.0149   0.0316   0.0522   0.0578   0.1492   0.1767   0.1938   0.2048
     0.2205   0.2355   0.2627   0.2984   0.4057   0.4489   0.4821   0.4908
     0.5375   0.5733   0.6063   0.6296   0.6661   0.6914   0.7361   0.7677
     0.9592   1.0106   1.0248   1.0581   1.0777   1.1125   1.1304   1.1465
     1.1802   1.1923   1.2321   1.2548   1.2813   1.2953   1.3225   1.3497
     1.4315   1.4667   1.4736   1.4926   1.5139   1.5444   1.5988   1.6272
     1.6646   1.6788   1.6989   1.7157   1.7295   1.7506   1.7617   1.7879
     1.7953   1.8181   1.8298   1.8556   1.8595   1.8815   1.9037   1.9319
     1.9657   1.9876   2.0077   2.0186   2.0817   2.0857   2.1578   2.1664

          k =-0.1250-0.1250 0.1250 (161283 PWs)   bands (ev):

   -17.5882 -17.5868 -17.5820 -17.5511 -17.5427 -17.5249 -17.5146 -17.4791
   -15.3815 -15.3696 -15.3580 -15.3345 -15.3319 -15.3303 -15.2800 -15.2781
   -13.8254 -13.8158 -13.8123 -13.8104 -13.8024 -13.8019 -13.7997 -13.7955
   -13.7932 -13.7853 -13.7825 -13.7787 -13.7755 -13.7727 -13.7693 -13.7692
   -13.7678 -13.7611 -13.7607 -13.7605 -13.7600 -13.7592 -13.7581 -13.7546
   -13.7507 -13.7500 -13.7494 -13.7488 -13.7483 -13.7477 -13.7455 -13.7347
   -13.7340 -13.7332 -13.7282 -13.7220 -13.7199 -13.7132 -13.7128 -13.7026
    -9.5435  -9.5049  -9.4344  -9.4075  -9.3681  -9.3308  -9.3079  -9.2801
    -9.2193  -9.1853  -9.1262  -9.0961  -9.0839  -9.0740  -9.0446  -8.9901
    -8.8997  -8.8676  -8.8342  -8.8057  -8.7735  -8.7510  -8.7412  -8.7142
    -8.6937  -8.6881  -8.6670  -8.6492  -8.6202  -8.5929  -8.4985  -8.4854
    -7.4329  -7.3919  -7.3811  -7.3720  -7.3469  -7.3366  -7.3343  -7.2979
    -6.7923  -6.7454  -6.7392  -6.7312  -6.7253  -6.6915  -6.6699  -6.6541
    -5.5652  -5.1516  -5.1154  -5.1010  -5.0788  -5.0567  -5.0531  -5.0293
    -5.0049  -4.9823  -4.9712  -4.9338  -4.6318  -4.5526  -4.5391  -4.1104
    -3.5434  -3.5181  -3.4904  -3.4659  -3.4630  -3.4529  -3.4427  -3.4085
    -2.9865  -2.9569  -2.9424  -2.9231  -2.9094  -2.9068  -2.8948  -2.8585
    -0.6298  -0.5979  -0.5598  -0.5496  -0.4986  -0.4719  -0.4528  -0.4269
    -0.3616  -0.3346  -0.2993  -0.2317   0.1134   0.1324   0.1440   0.2011
     0.2174   0.2419   0.2936   0.3230   0.6054   0.6590   0.6736   0.7252
     0.7536   0.8015   0.8372   0.8612   0.9147   0.9821   0.9880   1.0345
     1.0645   1.1053   1.1274   1.1686   1.1983   1.2216   1.2732   1.2964
     1.3179   1.3303   1.3731   1.3864   1.4011   1.4247   1.4325   1.4639
     1.4785   1.4926   1.5051   1.5217   1.5436   1.5641   1.5834   1.6096
     1.6321   1.6529   1.6917   1.7261   1.7514   1.7747   1.7797   1.7993
     1.8090   1.8438   1.8679   1.9032   1.9153   1.9338   1.9604   1.9803
     2.0042   2.1399   2.1921   2.2525   2.2864   2.3569   2.3901   2.6308

          k =-0.1250 0.1250-0.1250 (161283 PWs)   bands (ev):

   -17.5882 -17.5868 -17.5820 -17.5511 -17.5427 -17.5249 -17.5146 -17.4791
   -15.3815 -15.3696 -15.3580 -15.3345 -15.3319 -15.3303 -15.2800 -15.2781
   -13.8254 -13.8158 -13.8123 -13.8104 -13.8024 -13.8019 -13.7998 -13.7955
   -13.7932 -13.7853 -13.7825 -13.7787 -13.7755 -13.7727 -13.7693 -13.7692
   -13.7678 -13.7611 -13.7607 -13.7605 -13.7600 -13.7592 -13.7581 -13.7546
   -13.7507 -13.7500 -13.7494 -13.7488 -13.7483 -13.7477 -13.7455 -13.7347
   -13.7340 -13.7332 -13.7282 -13.7220 -13.7199 -13.7132 -13.7128 -13.7026
    -9.5449  -9.5069  -9.4349  -9.4046  -9.3643  -9.3284  -9.3078  -9.2751
    -9.2304  -9.1811  -9.1251  -9.1101  -9.0858  -9.0731  -9.0392  -8.9883
    -8.8951  -8.8637  -8.8300  -8.8084  -8.7894  -8.7526  -8.7238  -8.7122
    -8.7015  -8.6886  -8.6650  -8.6530  -8.6187  -8.5936  -8.4985  -8.4850
    -7.4346  -7.3924  -7.3815  -7.3699  -7.3476  -7.3360  -7.3345  -7.2968
    -6.7923  -6.7455  -6.7393  -6.7312  -6.7255  -6.6912  -6.6701  -6.6540
    -5.5655  -5.1520  -5.1156  -5.1008  -5.0778  -5.0569  -5.0495  -5.0304
    -5.0052  -4.9855  -4.9754  -4.9293  -4.6323  -4.5519  -4.5391  -4.1103
    -3.5433  -3.5180  -3.4902  -3.4667  -3.4627  -3.4520  -3.4434  -3.4086
    -2.9865  -2.9567  -2.9425  -2.9228  -2.9099  -2.9065  -2.8949  -2.8586
    -0.6262  -0.5985  -0.5696  -0.5415  -0.4918  -0.4764  -0.4533  -0.4316
    -0.3611  -0.3328  -0.3018  -0.2329   0.1110   0.1315   0.1421   0.2024
     0.2179   0.2454   0.2952   0.3266   0.6061   0.6506   0.6782   0.7256
     0.7542   0.8025   0.8383   0.8741   0.9167   0.9791   0.9945   1.0172
     1.0478   1.1057   1.1190   1.1696   1.2102   1.2540   1.2651   1.2909
     1.3200   1.3337   1.3726   1.3855   1.4006   1.4131   1.4208   1.4622
     1.4676   1.4947   1.5163   1.5290   1.5377   1.5565   1.5929   1.6161
     1.6312   1.6590   1.6965   1.7198   1.7465   1.7690   1.7861   1.8002
     1.8086   1.8285   1.8790   1.9040   1.9197   1.9399   1.9588   1.9721
     2.0048   2.1420   2.1910   2.2575   2.2866   2.3613   2.3829   2.6276

          k = 0.1250-0.1250-0.1250 (161283 PWs)   bands (ev):

   -17.5882 -17.5868 -17.5820 -17.5511 -17.5427 -17.5249 -17.5146 -17.4791
   -15.3815 -15.3696 -15.3580 -15.3345 -15.3319 -15.3303 -15.2800 -15.2781
   -13.8254 -13.8158 -13.8123 -13.8104 -13.8024 -13.8019 -13.7998 -13.7955
   -13.7932 -13.7853 -13.7825 -13.7787 -13.7755 -13.7727 -13.7693 -13.7692
   -13.7678 -13.7611 -13.7607 -13.7605 -13.7599 -13.7592 -13.7581 -13.7546
   -13.7507 -13.7500 -13.7494 -13.7488 -13.7483 -13.7477 -13.7455 -13.7347
   -13.7340 -13.7332 -13.7282 -13.7220 -13.7199 -13.7132 -13.7128 -13.7026
    -9.5435  -9.5048  -9.4346  -9.4066  -9.3684  -9.3310  -9.3092  -9.2807
    -9.2161  -9.1863  -9.1255  -9.0994  -9.0848  -9.0739  -9.0416  -8.9907
    -8.8969  -8.8595  -8.8378  -8.8092  -8.7893  -8.7521  -8.7255  -8.7157
    -8.6954  -8.6868  -8.6678  -8.6491  -8.6184  -8.5942  -8.4981  -8.4859
    -7.4327  -7.3922  -7.3808  -7.3721  -7.3468  -7.3366  -7.3343  -7.2979
    -6.7923  -6.7455  -6.7393  -6.7311  -6.7254  -6.6912  -6.6701  -6.6540
    -5.5654  -5.1528  -5.1130  -5.1004  -5.0776  -5.0576  -5.0522  -5.0292
    -5.0015  -4.9885  -4.9720  -4.9340  -4.6317  -4.5518  -4.5391  -4.1106
    -3.5432  -3.5180  -3.4902  -3.4668  -3.4622  -3.4522  -3.4435  -3.4086
    -2.9866  -2.9567  -2.9427  -2.9233  -2.9091  -2.9068  -2.8949  -2.8585
    -0.6351  -0.5990  -0.5576  -0.5382  -0.4892  -0.4779  -0.4547  -0.4376
    -0.3608  -0.3337  -0.3024  -0.2292   0.1131   0.1339   0.1434   0.2011
     0.2171   0.2442   0.2904   0.3237   0.6058   0.6594   0.6693   0.7236
     0.7526   0.8067   0.8384   0.8614   0.9132   0.9905   0.9976   1.0293
     1.0501   1.1188   1.1309   1.1655   1.1970   1.2370   1.2583   1.2900
     1.3253   1.3375   1.3501   1.3873   1.4005   1.4130   1.4420   1.4539
     1.4715   1.4888   1.5096   1.5404   1.5475   1.5736   1.5818   1.5988
     1.6373   1.6631   1.6958   1.7208   1.7496   1.7716   1.7769   1.8023
     1.8066   1.8326   1.8767   1.8959   1.9190   1.9439   1.9615   1.9727
     2.0015   2.1413   2.1905   2.2587   2.2887   2.3562   2.3832   2.6298

          k =-0.1250-0.1250 0.3750 (161207 PWs)   bands (ev):

   -17.5882 -17.5868 -17.5820 -17.5511 -17.5427 -17.5249 -17.5146 -17.4791
   -15.3815 -15.3696 -15.3580 -15.3345 -15.3319 -15.3303 -15.2800 -15.2781
   -13.8230 -13.8161 -13.8127 -13.8079 -13.8041 -13.8025 -13.7997 -13.7973
   -13.7933 -13.7854 -13.7825 -13.7787 -13.7755 -13.7708 -13.7693 -13.7692
   -13.7678 -13.7627 -13.7607 -13.7604 -13.7600 -13.7592 -13.7582 -13.7546
   -13.7508 -13.7500 -13.7494 -13.7488 -13.7483 -13.7477 -13.7456 -13.7347
   -13.7340 -13.7332 -13.7282 -13.7220 -13.7199 -13.7132 -13.7128 -13.7026
    -9.5105  -9.4832  -9.4568  -9.4317  -9.3885  -9.3379  -9.3104  -9.2763
    -9.1897  -9.1776  -9.1421  -9.1222  -9.1007  -9.0709  -9.0622  -9.0168
    -8.8551  -8.8280  -8.8114  -8.7791  -8.7653  -8.7519  -8.7345  -8.7210
    -8.7040  -8.6855  -8.6798  -8.6443  -8.6399  -8.6170  -8.4972  -8.4854
    -7.4306  -7.3912  -7.3796  -7.3744  -7.3469  -7.3383  -7.3362  -7.2989
    -6.7922  -6.7444  -6.7398  -6.7312  -6.7254  -6.6914  -6.6699  -6.6541
    -5.4427  -5.2572  -5.1484  -5.0916  -5.0793  -5.0543  -5.0349  -4.9975
    -4.9837  -4.9456  -4.9368  -4.8703  -4.7730  -4.6961  -4.4321  -4.2556
    -3.5416  -3.5119  -3.4966  -3.4652  -3.4622  -3.4560  -3.4444  -3.4087
    -2.9863  -2.9564  -2.9409  -2.9223  -2.9107  -2.9062  -2.8929  -2.8625
    -0.5868  -0.5603  -0.4713  -0.4632  -0.4414  -0.3964  -0.3273  -0.3043
    -0.1743  -0.1596  -0.0722   0.0220   0.1211   0.1275   0.1563   0.1908
     0.2084   0.2269   0.2565   0.3323   0.3994   0.4911   0.5759   0.6495
     0.6743   0.7051   0.7338   0.7540   0.7937   0.8070   0.8319   0.8764
     0.9793   1.0373   1.1439   1.1693   1.2075   1.2383   1.2535   1.2844
     1.2980   1.3126   1.3327   1.3614   1.3819   1.4074   1.4138   1.4521
     1.4986   1.5241   1.5461   1.5597   1.5822   1.5947   1.6305   1.6492
     1.6662   1.6933   1.7029   1.7182   1.7403   1.7549   1.7739   1.7972
     1.8005   1.8274   1.8490   1.8623   1.8762   1.8942   1.9143   1.9376
     1.9937   2.0828   2.1471   2.2005   2.2634   2.2924   2.4054   2.4814

          k =-0.1250 0.1250-0.3750 (161207 PWs)   bands (ev):

   -17.5882 -17.5868 -17.5820 -17.5511 -17.5427 -17.5249 -17.5146 -17.4791
   -15.3815 -15.3696 -15.3580 -15.3345 -15.3319 -15.3303 -15.2800 -15.2781
   -13.8230 -13.8161 -13.8127 -13.8079 -13.8041 -13.8025 -13.7997 -13.7973
   -13.7933 -13.7854 -13.7825 -13.7787 -13.7755 -13.7708 -13.7693 -13.7692
   -13.7678 -13.7627 -13.7607 -13.7604 -13.7600 -13.7592 -13.7582 -13.7546
   -13.7508 -13.7500 -13.7494 -13.7488 -13.7483 -13.7477 -13.7456 -13.7347
   -13.7340 -13.7332 -13.7282 -13.7220 -13.7199 -13.7132 -13.7128 -13.7026
    -9.5128  -9.4887  -9.4556  -9.4239  -9.3873  -9.3355  -9.3104  -9.2717
    -9.2015  -9.1781  -9.1464  -9.1169  -9.1033  -9.0712  -9.0637  -9.0119
    -8.8481  -8.8318  -8.8111  -8.7815  -8.7619  -8.7572  -8.7306  -8.7238
    -8.6968  -8.6952  -8.6728  -8.6520  -8.6361  -8.6175  -8.4974  -8.4848
    -7.4325  -7.3916  -7.3801  -7.3720  -7.3472  -7.3381  -7.3364  -7.2977
    -6.7922  -6.7445  -6.7398  -6.7312  -6.7256  -6.6911  -6.6701  -6.6540
    -5.4434  -5.2563  -5.1510  -5.0914  -5.0756  -5.0539  -5.0345  -4.9987
    -4.9851  -4.9517  -4.9268  -4.8748  -4.7741  -4.6944  -4.4319  -4.2554
    -3.5414  -3.5118  -3.4964  -3.4663  -3.4616  -3.4554  -3.4449  -3.4088
    -2.9862  -2.9563  -2.9410  -2.9217  -2.9114  -2.9061  -2.8928  -2.8626
    -0.5850  -0.5571  -0.4791  -0.4599  -0.4411  -0.3997  -0.3252  -0.3038
    -0.1757  -0.1634  -0.0753   0.0208   0.1173   0.1343   0.1763   0.1876
     0.2068   0.2233   0.2570   0.3204   0.4095   0.4913   0.5756   0.6413
     0.6798   0.6926   0.7420   0.7535   0.7865   0.8221   0.8408   0.8669
     0.9954   1.0193   1.1416   1.1615   1.2142   1.2368   1.2647   1.2752
     1.2963   1.3297   1.3396   1.3604   1.3770   1.3904   1.4177   1.4467
     1.4870   1.5227   1.5416   1.5614   1.5935   1.6037   1.6238   1.6565
     1.6693   1.6947   1.7057   1.7236   1.7380   1.7548   1.7614   1.7881
     1.8029   1.8214   1.8492   1.8729   1.8803   1.8977   1.9179   1.9311
     1.9832   2.0926   2.1483   2.1982   2.2627   2.3034   2.4004   2.4746

          k = 0.1250-0.1250-0.3750 (161207 PWs)   bands (ev):

   -17.5882 -17.5868 -17.5820 -17.5511 -17.5427 -17.5249 -17.5146 -17.4791
   -15.3815 -15.3696 -15.3580 -15.3345 -15.3319 -15.3303 -15.2800 -15.2781
   -13.8230 -13.8161 -13.8127 -13.8079 -13.8041 -13.8025 -13.7997 -13.7973
   -13.7933 -13.7854 -13.7825 -13.7787 -13.7755 -13.7708 -13.7693 -13.7692
   -13.7678 -13.7627 -13.7607 -13.7604 -13.7600 -13.7592 -13.7582 -13.7546
   -13.7508 -13.7500 -13.7494 -13.7488 -13.7483 -13.7477 -13.7456 -13.7347
   -13.7340 -13.7332 -13.7282 -13.7220 -13.7199 -13.7132 -13.7128 -13.7026
    -9.5107  -9.4830  -9.4568  -9.4311  -9.3889  -9.3379  -9.3115  -9.2765
    -9.1890  -9.1753  -9.1431  -9.1236  -9.1036  -9.0686  -9.0611  -9.0171
    -8.8420  -8.8325  -8.8143  -8.7936  -8.7642  -8.7499  -8.7317  -8.7188
    -8.7068  -8.6883  -8.6727  -8.6449  -8.6380  -8.6190  -8.4969  -8.4859
    -7.4305  -7.3915  -7.3790  -7.3748  -7.3465  -7.3387  -7.3363  -7.2988
    -6.7922  -6.7444  -6.7399  -6.7311  -6.7255  -6.6911  -6.6701  -6.6540
    -5.4431  -5.2567  -5.1479  -5.0912  -5.0788  -5.0543  -5.0347  -4.9963
    -4.9838  -4.9471  -4.9363  -4.8742  -4.7729  -4.6938  -4.4321  -4.2558
    -3.5413  -3.5119  -3.4963  -3.4664  -3.4608  -3.4560  -3.4450  -3.4089
    -2.9863  -2.9563  -2.9412  -2.9224  -2.9104  -2.9064  -2.8929  -2.8624
    -0.5900  -0.5524  -0.4761  -0.4554  -0.4482  -0.3952  -0.3325  -0.3069
    -0.1767  -0.1486  -0.0738   0.0211   0.1209   0.1245   0.1526   0.1921
     0.2155   0.2272   0.2553   0.3294   0.3990   0.4892   0.5779   0.6516
     0.6778   0.7024   0.7371   0.7481   0.7969   0.8109   0.8309   0.8734
     0.9821   1.0391   1.1402   1.1678   1.2170   1.2397   1.2621   1.2804
     1.2879   1.2981   1.3277   1.3657   1.3816   1.4062   1.4166   1.4575
     1.4879   1.5252   1.5485   1.5716   1.5786   1.5917   1.6370   1.6611
     1.6660   1.6906   1.7009   1.7189   1.7432   1.7529   1.7743   1.7842
     1.8042   1.8272   1.8431   1.8623   1.8822   1.8950   1.9145   1.9360
     1.9880   2.0853   2.1484   2.2002   2.2638   2.2993   2.4019   2.4759

          k = 0.3750-0.1250 0.1250 (161207 PWs)   bands (ev):

   -17.5879 -17.5865 -17.5823 -17.5510 -17.5426 -17.5249 -17.5148 -17.4793
   -15.3808 -15.3661 -15.3587 -15.3343 -15.3338 -15.3303 -15.2805 -15.2794
   -13.8252 -13.8152 -13.8122 -13.8104 -13.8017 -13.8010 -13.7986 -13.7961
   -13.7949 -13.7858 -13.7818 -13.7786 -13.7756 -13.7730 -13.7693 -13.7692
   -13.7678 -13.7611 -13.7607 -13.7604 -13.7599 -13.7592 -13.7588 -13.7546
   -13.7508 -13.7500 -13.7499 -13.7488 -13.7483 -13.7477 -13.7456 -13.7347
   -13.7340 -13.7332 -13.7282 -13.7220 -13.7199 -13.7132 -13.7128 -13.7026
    -9.5087  -9.4734  -9.4530  -9.3970  -9.3797  -9.3609  -9.3377  -9.3192
    -9.2130  -9.1872  -9.1227  -9.0931  -9.0774  -9.0552  -9.0262  -8.9825
    -8.9231  -8.8900  -8.8248  -8.8045  -8.7817  -8.7597  -8.7237  -8.7067
    -8.6999  -8.6832  -8.6510  -8.6135  -8.5957  -8.5845  -8.5286  -8.5199
    -7.4248  -7.3947  -7.3797  -7.3695  -7.3579  -7.3379  -7.3359  -7.3035
    -6.7914  -6.7430  -6.7373  -6.7323  -6.7252  -6.6897  -6.6699  -6.6538
    -5.4332  -5.2311  -5.1089  -5.0863  -5.0622  -5.0441  -5.0262  -5.0119
    -5.0007  -4.9718  -4.9635  -4.8839  -4.7850  -4.6908  -4.4445  -4.2624
    -3.5375  -3.5204  -3.4874  -3.4683  -3.4648  -3.4526  -3.4472  -3.4095
    -2.9788  -2.9641  -2.9343  -2.9209  -2.9125  -2.9091  -2.8956  -2.8657
    -0.6056  -0.5957  -0.5277  -0.4905  -0.4737  -0.4338  -0.3969  -0.3859
    -0.1000  -0.0671   0.0110   0.0474   0.1408   0.1484   0.1748   0.1968
     0.2241   0.2386   0.3103   0.3370   0.4689   0.5424   0.6394   0.6809
     0.7084   0.7189   0.7771   0.8115   0.8231   0.8436   0.8684   0.9197
     1.0035   1.0263   1.0802   1.1125   1.1538   1.1773   1.1910   1.2395
     1.2680   1.2998   1.3339   1.3571   1.3797   1.4004   1.4262   1.4463
     1.4803   1.4975   1.5291   1.5564   1.5731   1.6020   1.6238   1.6384
     1.6525   1.6815   1.6925   1.7323   1.7552   1.7658   1.7810   1.7982
     1.8045   1.8124   1.8362   1.8704   1.8961   1.9367   1.9476   1.9740
     2.0043   2.0140   2.1381   2.1505   2.1694   2.2403   2.3227   2.4039

          k =-0.3750-0.1250-0.1250 (161207 PWs)   bands (ev):

   -17.5879 -17.5865 -17.5823 -17.5510 -17.5426 -17.5249 -17.5148 -17.4793
   -15.3808 -15.3661 -15.3587 -15.3343 -15.3338 -15.3303 -15.2805 -15.2794
   -13.8252 -13.8152 -13.8122 -13.8104 -13.8017 -13.8010 -13.7986 -13.7961
   -13.7949 -13.7858 -13.7818 -13.7786 -13.7756 -13.7730 -13.7693 -13.7692
   -13.7678 -13.7611 -13.7607 -13.7604 -13.7599 -13.7592 -13.7588 -13.7546
   -13.7508 -13.7500 -13.7499 -13.7488 -13.7483 -13.7477 -13.7456 -13.7347
   -13.7340 -13.7332 -13.7282 -13.7220 -13.7199 -13.7132 -13.7128 -13.7026
    -9.5088  -9.4734  -9.4532  -9.3962  -9.3789  -9.3630  -9.3379  -9.3177
    -9.2152  -9.1861  -9.1185  -9.0996  -9.0807  -9.0486  -9.0238  -8.9865
    -8.9248  -8.8851  -8.8329  -8.8011  -8.7694  -8.7594  -8.7405  -8.7128
    -8.6907  -8.6774  -8.6506  -8.6133  -8.5984  -8.5849  -8.5306  -8.5177
    -7.4252  -7.3944  -7.3795  -7.3699  -7.3576  -7.3380  -7.3359  -7.3035
    -6.7914  -6.7428  -6.7374  -6.7324  -6.7251  -6.6900  -6.6696  -6.6539
    -5.4329  -5.2316  -5.1095  -5.0865  -5.0615  -5.0431  -5.0266  -5.0121
    -4.9937  -4.9764  -4.9651  -4.8838  -4.7858  -4.6913  -4.4442  -4.2620
    -3.5379  -3.5201  -3.4872  -3.4680  -3.4649  -3.4541  -3.4459  -3.4094
    -2.9787  -2.9642  -2.9340  -2.9202  -2.9132  -2.9096  -2.8953  -2.8656
    -0.6088  -0.5991  -0.5243  -0.4802  -0.4746  -0.4425  -0.3992  -0.3842
    -0.0943  -0.0680   0.0102   0.0465   0.1427   0.1531   0.1682   0.1949
     0.2262   0.2386   0.3125   0.3388   0.4672   0.5394   0.6398   0.6796
     0.7083   0.7208   0.7759   0.7994   0.8237   0.8419   0.8766   0.9208
     0.9911   1.0610   1.0740   1.1116   1.1546   1.1836   1.2012   1.2343
     1.2552   1.3019   1.3378   1.3437   1.3645   1.4033   1.4207   1.4484
     1.4935   1.5014   1.5367   1.5503   1.5676   1.6052   1.6191   1.6453
     1.6573   1.6758   1.6857   1.7223   1.7513   1.7653   1.7753   1.7977
     1.8051   1.8221   1.8393   1.8748   1.9008   1.9435   1.9505   1.9721
     1.9950   2.0148   2.1248   2.1555   2.1686   2.2451   2.3253   2.4070

          k = 0.3750 0.1250-0.1250 (161207 PWs)   bands (ev):

   -17.5879 -17.5865 -17.5823 -17.5510 -17.5426 -17.5249 -17.5148 -17.4793
   -15.3808 -15.3661 -15.3587 -15.3343 -15.3338 -15.3303 -15.2805 -15.2794
   -13.8252 -13.8151 -13.8122 -13.8104 -13.8017 -13.8010 -13.7986 -13.7961
   -13.7949 -13.7858 -13.7818 -13.7786 -13.7756 -13.7730 -13.7693 -13.7692
   -13.7678 -13.7611 -13.7607 -13.7604 -13.7599 -13.7592 -13.7588 -13.7546
   -13.7508 -13.7500 -13.7499 -13.7488 -13.7483 -13.7477 -13.7456 -13.7347
   -13.7340 -13.7332 -13.7282 -13.7220 -13.7199 -13.7132 -13.7128 -13.7026
    -9.5073  -9.4663  -9.4523  -9.4036  -9.3843  -9.3709  -9.3423  -9.3067
    -9.2076  -9.1913  -9.1220  -9.0830  -9.0776  -9.0489  -9.0322  -8.9887
    -8.9296  -8.8887  -8.8326  -8.7959  -8.7686  -8.7575  -8.7443  -8.7094
    -8.6932  -8.6794  -8.6512  -8.6134  -8.5965  -8.5823  -8.5322  -8.5180
    -7.4226  -7.3943  -7.3782  -7.3733  -7.3577  -7.3381  -7.3359  -7.3043
    -6.7914  -6.7429  -6.7373  -6.7323  -6.7251  -6.6900  -6.6696  -6.6539
    -5.4325  -5.2316  -5.1077  -5.0852  -5.0624  -5.0467  -5.0288  -5.0076
    -4.9982  -4.9750  -4.9675  -4.8785  -4.7845  -4.6925  -4.4448  -4.2625
    -3.5377  -3.5204  -3.4876  -3.4675  -3.4651  -3.4540  -3.4459  -3.4094
    -2.9788  -2.9644  -2.9343  -2.9204  -2.9137  -2.9085  -2.8953  -2.8656
    -0.6098  -0.5926  -0.5257  -0.4924  -0.4636  -0.4499  -0.3921  -0.3843
    -0.1018  -0.0567   0.0101   0.0563   0.1383   0.1540   0.1724   0.1898
     0.2084   0.2323   0.3120   0.3387   0.4668   0.5567   0.6511   0.6817
     0.7012   0.7168   0.7740   0.8051   0.8309   0.8370   0.8621   0.9209
     1.0081   1.0357   1.0694   1.1125   1.1606   1.1728   1.1941   1.2348
     1.2718   1.2893   1.3298   1.3554   1.3772   1.4091   1.4183   1.4654
     1.4844   1.4964   1.5331   1.5544   1.5827   1.5966   1.6133   1.6353
     1.6633   1.6777   1.6876   1.7306   1.7474   1.7629   1.7804   1.7947
     1.8065   1.8264   1.8393   1.8754   1.9011   1.9347   1.9554   1.9666
     1.9962   2.0139   2.1241   2.1523   2.1716   2.2450   2.3232   2.4068

          k =-0.3750 0.1250 0.1250 (161207 PWs)   bands (ev):

   -17.5879 -17.5865 -17.5823 -17.5510 -17.5426 -17.5249 -17.5148 -17.4793
   -15.3808 -15.3661 -15.3587 -15.3343 -15.3338 -15.3303 -15.2805 -15.2794
   -13.8252 -13.8152 -13.8122 -13.8104 -13.8017 -13.8010 -13.7986 -13.7961
   -13.7949 -13.7858 -13.7818 -13.7786 -13.7756 -13.7730 -13.7693 -13.7692
   -13.7678 -13.7611 -13.7607 -13.7604 -13.7599 -13.7592 -13.7588 -13.7546
   -13.7508 -13.7500 -13.7499 -13.7488 -13.7483 -13.7477 -13.7456 -13.7347
   -13.7340 -13.7332 -13.7282 -13.7220 -13.7199 -13.7132 -13.7128 -13.7026
    -9.5073  -9.4663  -9.4521  -9.4024  -9.3865  -9.3714  -9.3408  -9.3073
    -9.2075  -9.1903  -9.1177  -9.0895  -9.0816  -9.0412  -9.0360  -8.9895
    -8.9274  -8.8816  -8.8282  -8.8055  -8.7812  -8.7633  -8.7240  -8.7082
    -8.6990  -8.6793  -8.6509  -8.6143  -8.5949  -8.5817  -8.5317  -8.5191
    -7.4223  -7.3948  -7.3779  -7.3735  -7.3575  -7.3381  -7.3361  -7.3042
    -6.7914  -6.7429  -6.7374  -6.7322  -6.7251  -6.6897  -6.6699  -6.6538
    -5.4329  -5.2313  -5.1079  -5.0858  -5.0620  -5.0461  -5.0274  -5.0078
    -4.9962  -4.9753  -4.9687  -4.8807  -4.7847  -4.6926  -4.4440  -4.2626
    -3.5374  -3.5205  -3.4874  -3.4682  -3.4645  -3.4528  -3.4472  -3.4096
    -2.9789  -2.9642  -2.9346  -2.9209  -2.9129  -2.9087  -2.8953  -2.8656
    -0.6145  -0.5951  -0.5172  -0.4841  -0.4703  -0.4462  -0.3942  -0.3866
    -0.1040  -0.0588   0.0086   0.0580   0.1372   0.1492   0.1768   0.1964
     0.2096   0.2275   0.3214   0.3256   0.4683   0.5577   0.6479   0.6716
     0.7101   0.7208   0.7802   0.8090   0.8245   0.8397   0.8624   0.9167
     0.9930   1.0512   1.0792   1.1205   1.1519   1.1834   1.1994   1.2223
     1.2707   1.2858   1.3331   1.3455   1.3654   1.4034   1.4285   1.4576
     1.4877   1.5050   1.5275   1.5644   1.5763   1.5983   1.6229   1.6343
     1.6515   1.6805   1.6942   1.7353   1.7406   1.7661   1.7781   1.7928
     1.8129   1.8238   1.8419   1.8669   1.8947   1.9316   1.9463   1.9749
     2.0045   2.0146   2.1348   2.1522   2.1685   2.2382   2.3245   2.4047

          k =-0.1250 0.3750 0.1250 (161207 PWs)   bands (ev):

   -17.5881 -17.5869 -17.5819 -17.5511 -17.5427 -17.5249 -17.5146 -17.4791
   -15.3815 -15.3696 -15.3580 -15.3344 -15.3320 -15.3303 -15.2799 -15.2782
   -13.8253 -13.8155 -13.8118 -13.8103 -13.8019 -13.8001 -13.7993 -13.7959
   -13.7925 -13.7840 -13.7837 -13.7810 -13.7755 -13.7732 -13.7693 -13.7692
   -13.7678 -13.7616 -13.7607 -13.7605 -13.7600 -13.7592 -13.7584 -13.7546
   -13.7508 -13.7500 -13.7495 -13.7488 -13.7483 -13.7477 -13.7455 -13.7347
   -13.7340 -13.7332 -13.7282 -13.7220 -13.7199 -13.7132 -13.7128 -13.7026
    -9.5387  -9.5077  -9.4323  -9.3961  -9.3756  -9.3264  -9.3126  -9.2820
    -9.2066  -9.1822  -9.1515  -9.1002  -9.0923  -9.0593  -9.0386  -8.9888
    -8.9389  -8.8877  -8.8427  -8.7980  -8.7914  -8.7401  -8.7163  -8.6971
    -8.6855  -8.6787  -8.6571  -8.6326  -8.6178  -8.5698  -8.5277  -8.5088
    -7.4268  -7.3921  -7.3812  -7.3668  -7.3484  -7.3418  -7.3338  -7.2997
    -6.7927  -6.7449  -6.7382  -6.7331  -6.7240  -6.6907  -6.6697  -6.6555
    -5.4209  -5.1942  -5.1421  -5.0956  -5.0773  -5.0607  -5.0358  -5.0009
    -4.9831  -4.9518  -4.9379  -4.9140  -4.7266  -4.7133  -4.5021  -4.2901
    -3.5339  -3.5152  -3.4904  -3.4730  -3.4625  -3.4529  -3.4509  -3.4066
    -2.9867  -2.9575  -2.9389  -2.9258  -2.9108  -2.9044  -2.8958  -2.8589
    -0.6035  -0.5606  -0.5180  -0.4920  -0.4351  -0.4047  -0.3693  -0.3166
    -0.0809  -0.0336   0.0097   0.0692   0.1226   0.1544   0.1789   0.2109
     0.2263   0.2364   0.2919   0.3113   0.5220   0.5594   0.6305   0.6419
     0.6915   0.7074   0.7183   0.7789   0.8019   0.8323   0.8963   0.9070
     1.0096   1.0415   1.0443   1.1275   1.1406   1.1868   1.2226   1.2422
     1.2878   1.3009   1.3153   1.3484   1.3717   1.3845   1.4143   1.4393
     1.4510   1.4718   1.5152   1.5298   1.5444   1.5637   1.5901   1.6203
     1.6464   1.6659   1.7076   1.7241   1.7289   1.7606   1.7679   1.8131
     1.8234   1.8424   1.8724   1.9098   1.9172   1.9414   1.9622   1.9995
     2.0140   2.0443   2.0653   2.0889   2.1617   2.1735   2.3301   2.3876

          k =-0.1250-0.3750-0.1250 (161207 PWs)   bands (ev):

   -17.5881 -17.5869 -17.5819 -17.5511 -17.5427 -17.5249 -17.5146 -17.4791
   -15.3815 -15.3696 -15.3580 -15.3344 -15.3320 -15.3303 -15.2799 -15.2782
   -13.8253 -13.8155 -13.8118 -13.8103 -13.8019 -13.8001 -13.7993 -13.7959
   -13.7925 -13.7840 -13.7837 -13.7810 -13.7755 -13.7732 -13.7693 -13.7692
   -13.7678 -13.7616 -13.7607 -13.7605 -13.7600 -13.7592 -13.7584 -13.7546
   -13.7508 -13.7500 -13.7495 -13.7488 -13.7483 -13.7477 -13.7455 -13.7347
   -13.7340 -13.7332 -13.7282 -13.7220 -13.7199 -13.7132 -13.7128 -13.7026
    -9.5398  -9.5100  -9.4318  -9.3925  -9.3750  -9.3247  -9.3108  -9.2792
    -9.2141  -9.1795  -9.1536  -9.1037  -9.0939  -9.0594  -9.0340  -8.9902
    -8.9464  -8.8828  -8.8411  -8.8073  -8.7687  -8.7446  -8.7234  -8.6957
    -8.6858  -8.6747  -8.6574  -8.6328  -8.6221  -8.5705  -8.5305  -8.5055
    -7.4292  -7.3920  -7.3811  -7.3647  -7.3491  -7.3419  -7.3334  -7.2987
    -6.7927  -6.7449  -6.7382  -6.7333  -6.7240  -6.6910  -6.6694  -6.6556
    -5.4203  -5.1901  -5.1489  -5.0947  -5.0778  -5.0607  -5.0357  -5.0009
    -4.9862  -4.9533  -4.9364  -4.9100  -4.7263  -4.7128  -4.5026  -4.2899
    -3.5343  -3.5149  -3.4905  -3.4722  -3.4633  -3.4549  -3.4488  -3.4064
    -2.9865  -2.9574  -2.9387  -2.9251  -2.9112  -2.9051  -2.8957  -2.8590
    -0.6002  -0.5621  -0.5208  -0.4930  -0.4419  -0.3964  -0.3736  -0.3164
    -0.0855  -0.0310   0.0130   0.0747   0.1196   0.1529   0.1782   0.2107
     0.2267   0.2370   0.2995   0.3127   0.5284   0.5552   0.6282   0.6347
     0.6872   0.7123   0.7167   0.7769   0.8042   0.8349   0.8901   0.9148
     1.0048   1.0411   1.0626   1.1108   1.1390   1.1960   1.2213   1.2287
     1.2888   1.2960   1.3225   1.3522   1.3698   1.3837   1.4107   1.4399
     1.4542   1.4772   1.5205   1.5358   1.5418   1.5534   1.5884   1.6218
     1.6449   1.6674   1.6943   1.7240   1.7355   1.7561   1.7771   1.8076
     1.8237   1.8545   1.8665   1.9033   1.9111   1.9486   1.9747   2.0033
     2.0106   2.0381   2.0647   2.0818   2.1581   2.1766   2.3345   2.3922

          k = 0.1250 0.3750-0.1250 (161207 PWs)   bands (ev):

   -17.5881 -17.5869 -17.5819 -17.5511 -17.5427 -17.5249 -17.5146 -17.4791
   -15.3815 -15.3696 -15.3580 -15.3344 -15.3320 -15.3303 -15.2799 -15.2782
   -13.8253 -13.8155 -13.8118 -13.8103 -13.8019 -13.8001 -13.7993 -13.7959
   -13.7925 -13.7840 -13.7837 -13.7810 -13.7755 -13.7732 -13.7693 -13.7692
   -13.7678 -13.7616 -13.7607 -13.7605 -13.7600 -13.7592 -13.7584 -13.7546
   -13.7508 -13.7500 -13.7495 -13.7488 -13.7483 -13.7477 -13.7455 -13.7347
   -13.7340 -13.7332 -13.7282 -13.7220 -13.7199 -13.7132 -13.7128 -13.7026
    -9.5387  -9.5078  -9.4321  -9.3976  -9.3746  -9.3261  -9.3118  -9.2808
    -9.2112  -9.1803  -9.1510  -9.0997  -9.0916  -9.0564  -9.0401  -8.9904
    -8.9467  -8.8776  -8.8507  -8.7986  -8.7761  -8.7436  -8.7269  -8.6971
    -8.6862  -8.6737  -8.6527  -8.6340  -8.6212  -8.5702  -8.5276  -8.5081
    -7.4269  -7.3918  -7.3813  -7.3669  -7.3484  -7.3418  -7.3337  -7.2997
    -6.7927  -6.7449  -6.7381  -6.7333  -6.7239  -6.6911  -6.6694  -6.6556
    -5.4202  -5.1947  -5.1451  -5.0950  -5.0769  -5.0613  -5.0362  -5.0013
    -4.9828  -4.9527  -4.9325  -4.9131  -4.7292  -4.7133  -4.5022  -4.2899
    -3.5343  -3.5150  -3.4906  -3.4727  -3.4628  -3.4547  -3.4489  -3.4065
    -2.9866  -2.9576  -2.9386  -2.9255  -2.9112  -2.9044  -2.8958  -2.8589
    -0.6031  -0.5580  -0.5191  -0.4975  -0.4351  -0.3981  -0.3730  -0.3159
    -0.0879  -0.0314   0.0138   0.0737   0.1222   0.1585   0.1822   0.2039
     0.2272   0.2346   0.2977   0.3057   0.5287   0.5523   0.6287   0.6478
     0.6806   0.7079   0.7216   0.7692   0.8138   0.8295   0.8793   0.9156
     1.0012   1.0451   1.0600   1.1144   1.1483   1.1971   1.2178   1.2348
     1.2791   1.2964   1.3250   1.3591   1.3739   1.3907   1.4082   1.4480
     1.4534   1.4747   1.5084   1.5279   1.5390   1.5620   1.5938   1.6156
     1.6351   1.6807   1.7035   1.7138   1.7366   1.7515   1.7746   1.8181
     1.8286   1.8467   1.8678   1.8952   1.9164   1.9385   1.9796   1.9931
     2.0124   2.0425   2.0761   2.0861   2.1529   2.1802   2.3317   2.3877

          k = 0.1250-0.3750 0.1250 (161207 PWs)   bands (ev):

   -17.5881 -17.5869 -17.5819 -17.5511 -17.5427 -17.5249 -17.5146 -17.4791
   -15.3815 -15.3696 -15.3580 -15.3344 -15.3320 -15.3303 -15.2799 -15.2782
   -13.8253 -13.8155 -13.8118 -13.8103 -13.8019 -13.8001 -13.7993 -13.7959
   -13.7925 -13.7840 -13.7837 -13.7810 -13.7755 -13.7732 -13.7693 -13.7692
   -13.7678 -13.7616 -13.7607 -13.7605 -13.7600 -13.7592 -13.7584 -13.7546
   -13.7508 -13.7500 -13.7495 -13.7488 -13.7483 -13.7477 -13.7455 -13.7347
   -13.7340 -13.7332 -13.7282 -13.7220 -13.7199 -13.7132 -13.7128 -13.7026
    -9.5396  -9.5103  -9.4321  -9.3936  -9.3733  -9.3237  -9.3121  -9.2803
    -9.2114  -9.1810  -9.1521  -9.1028  -9.0937  -9.0570  -9.0428  -8.9891
    -8.9465  -8.8710  -8.8462  -8.8074  -8.7818  -8.7381  -8.7163  -8.6963
    -8.6870  -8.6774  -8.6571  -8.6340  -8.6225  -8.5691  -8.5288  -8.5069
    -7.4289  -7.3922  -7.3813  -7.3644  -7.3495  -7.3416  -7.3336  -7.2986
    -6.7927  -6.7450  -6.7381  -6.7332  -6.7241  -6.6907  -6.6697  -6.6555
    -5.4204  -5.1890  -5.1504  -5.0949  -5.0787  -5.0611  -5.0363  -5.0019
    -4.9861  -4.9522  -4.9332  -4.9089  -4.7285  -4.7125  -4.5024  -4.2902
    -3.5339  -3.5152  -3.4905  -3.4727  -3.4632  -3.4529  -3.4504  -3.4066
    -2.9866  -2.9575  -2.9389  -2.9250  -2.9114  -2.9044  -2.8959  -2.8590
    -0.6000  -0.5606  -0.5211  -0.4930  -0.4378  -0.3996  -0.3716  -0.3179
    -0.0861  -0.0312   0.0116   0.0719   0.1206   0.1498   0.1827   0.2115
     0.2276   0.2325   0.2977   0.3142   0.5330   0.5535   0.6319   0.6390
     0.6785   0.7058   0.7272   0.7734   0.8150   0.8287   0.8832   0.9074
     1.0150   1.0405   1.0513   1.1224   1.1361   1.1848   1.2255   1.2369
     1.2870   1.2979   1.3171   1.3570   1.3752   1.3971   1.4058   1.4437
     1.4575   1.4787   1.5079   1.5202   1.5396   1.5562   1.5967   1.6158
     1.6352   1.6820   1.7041   1.7101   1.7342   1.7546   1.7821   1.8094
     1.8270   1.8469   1.8763   1.9151   1.9300   1.9396   1.9493   1.9875
     2.0148   2.0435   2.0675   2.0941   2.1596   2.1705   2.3368   2.3839

          k =-0.1250-0.3750 0.3750 (161300 PWs)   bands (ev):

   -17.5881 -17.5869 -17.5819 -17.5511 -17.5427 -17.5249 -17.5146 -17.4791
   -15.3815 -15.3696 -15.3580 -15.3344 -15.3320 -15.3303 -15.2799 -15.2782
   -13.8228 -13.8160 -13.8123 -13.8073 -13.8028 -13.8021 -13.7994 -13.7975
   -13.7925 -13.7839 -13.7838 -13.7810 -13.7755 -13.7713 -13.7693 -13.7692
   -13.7678 -13.7632 -13.7607 -13.7604 -13.7600 -13.7593 -13.7586 -13.7546
   -13.7509 -13.7500 -13.7495 -13.7488 -13.7483 -13.7477 -13.7455 -13.7347
   -13.7340 -13.7332 -13.7282 -13.7220 -13.7199 -13.7132 -13.7128 -13.7026
    -9.5087  -9.4816  -9.4570  -9.4273  -9.3860  -9.3344  -9.3148  -9.2782
    -9.1888  -9.1659  -9.1401  -9.1210  -9.1074  -9.0871  -9.0737  -9.0247
    -8.8704  -8.8245  -8.8095  -8.7951  -8.7796  -8.7483  -8.7360  -8.7198
    -8.6876  -8.6833  -8.6540  -8.6460  -8.6143  -8.5793  -8.5214  -8.5133
    -7.4243  -7.3907  -7.3792  -7.3706  -7.3484  -7.3434  -7.3357  -7.3004
    -6.7927  -6.7436  -6.7391  -6.7332  -6.7241  -6.6910  -6.6696  -6.6556
    -5.3053  -5.1630  -5.1368  -5.0971  -5.0877  -5.0584  -5.0368  -5.0187
    -4.9811  -4.9712  -4.9390  -4.8702  -4.8186  -4.6432  -4.6068  -4.4319
    -3.5336  -3.5127  -3.4909  -3.4714  -3.4620  -3.4579  -3.4509  -3.4069
    -2.9866  -2.9573  -2.9382  -2.9224  -2.9139  -2.9048  -2.8929  -2.8625
    -0.4886  -0.4599  -0.3992  -0.3718  -0.2214  -0.2064  -0.1240  -0.0910
    -0.0509  -0.0031   0.0228   0.0597   0.1294   0.1342   0.1718   0.2081
     0.2199   0.2356   0.2739   0.3212   0.3866   0.4565   0.5268   0.5543
     0.5932   0.6047   0.6544   0.6963   0.7062   0.7706   0.7943   0.8614
     0.9949   1.0266   1.0418   1.0846   1.0971   1.1523   1.1619   1.1680
     1.2067   1.2174   1.2554   1.2753   1.3059   1.3383   1.3639   1.4251
     1.4805   1.4916   1.5274   1.5471   1.5636   1.5897   1.6363   1.6623
     1.6764   1.6993   1.7105   1.7299   1.7487   1.7609   1.7702   1.8032
     1.8179   1.8406   1.8594   1.8722   1.8976   1.9146   1.9313   1.9539
     2.0145   2.0255   2.0514   2.0743   2.1217   2.1798   2.2036   2.2474

          k =-0.1250 0.3750-0.3750 (161300 PWs)   bands (ev):

   -17.5881 -17.5869 -17.5819 -17.5511 -17.5427 -17.5249 -17.5146 -17.4791
   -15.3815 -15.3696 -15.3580 -15.3344 -15.3320 -15.3303 -15.2799 -15.2782
   -13.8228 -13.8160 -13.8123 -13.8073 -13.8028 -13.8021 -13.7994 -13.7975
   -13.7925 -13.7839 -13.7838 -13.7810 -13.7755 -13.7713 -13.7693 -13.7692
   -13.7678 -13.7632 -13.7607 -13.7604 -13.7600 -13.7593 -13.7586 -13.7546
   -13.7509 -13.7500 -13.7495 -13.7488 -13.7483 -13.7477 -13.7455 -13.7347
   -13.7340 -13.7332 -13.7282 -13.7220 -13.7199 -13.7132 -13.7128 -13.7026
    -9.5106  -9.4872  -9.4554  -9.4196  -9.3861  -9.3322  -9.3149  -9.2773
    -9.1869  -9.1699  -9.1390  -9.1273  -9.1081  -9.0896  -9.0736  -9.0209
    -8.8695  -8.8235  -8.8122  -8.7946  -8.7781  -8.7483  -8.7359  -8.7155
    -8.6859  -8.6800  -8.6621  -8.6470  -8.6159  -8.5776  -8.5245  -8.5103
    -7.4265  -7.3912  -7.3792  -7.3679  -7.3489  -7.3438  -7.3357  -7.2993
    -6.7926  -6.7438  -6.7391  -6.7332  -6.7243  -6.6907  -6.6698  -6.6555
    -5.3053  -5.1607  -5.1384  -5.0915  -5.0881  -5.0637  -5.0385  -5.0202
    -4.9836  -4.9732  -4.9363  -4.8677  -4.8169  -4.6438  -4.6059  -4.4325
    -3.5332  -3.5130  -3.4907  -3.4713  -3.4626  -3.4562  -3.4523  -3.4070
    -2.9865  -2.9571  -2.9385  -2.9212  -2.9147  -2.9050  -2.8928  -2.8627
    -0.4901  -0.4540  -0.4027  -0.3685  -0.2269  -0.2102  -0.1234  -0.0973
    -0.0482  -0.0106   0.0275   0.0592   0.1221   0.1557   0.1739   0.2100
     0.2224   0.2399   0.2718   0.3047   0.3932   0.4557   0.5261   0.5695
     0.5843   0.6027   0.6439   0.6993   0.7098   0.7695   0.7960   0.8592
     0.9998   1.0349   1.0485   1.0816   1.1012   1.1208   1.1464   1.1841
     1.2015   1.2314   1.2518   1.2898   1.2995   1.3475   1.3641   1.4187
     1.4651   1.4958   1.5311   1.5480   1.5651   1.5844   1.6321   1.6617
     1.6852   1.6954   1.7164   1.7251   1.7390   1.7582   1.7778   1.8031
     1.8200   1.8446   1.8596   1.8879   1.9099   1.9165   1.9284   1.9419
     2.0032   2.0174   2.0389   2.0861   2.1343   2.1726   2.2181   2.2341

          k = 0.1250-0.3750-0.3750 (161300 PWs)   bands (ev):

   -17.5881 -17.5869 -17.5819 -17.5511 -17.5427 -17.5249 -17.5146 -17.4791
   -15.3815 -15.3696 -15.3580 -15.3344 -15.3320 -15.3303 -15.2799 -15.2782
   -13.8228 -13.8160 -13.8123 -13.8073 -13.8028 -13.8021 -13.7994 -13.7975
   -13.7925 -13.7839 -13.7838 -13.7810 -13.7755 -13.7713 -13.7693 -13.7692
   -13.7678 -13.7632 -13.7607 -13.7604 -13.7600 -13.7593 -13.7586 -13.7546
   -13.7509 -13.7500 -13.7495 -13.7488 -13.7483 -13.7477 -13.7455 -13.7347
   -13.7340 -13.7332 -13.7282 -13.7220 -13.7199 -13.7132 -13.7128 -13.7026
    -9.5089  -9.4814  -9.4570  -9.4265  -9.3866  -9.3344  -9.3156  -9.2789
    -9.1873  -9.1608  -9.1429  -9.1280  -9.1077  -9.0827  -9.0730  -9.0250
    -8.8611  -8.8302  -8.8167  -8.7988  -8.7738  -8.7532  -8.7354  -8.7132
    -8.6878  -8.6804  -8.6629  -8.6439  -8.6111  -8.5790  -8.5220  -8.5135
    -7.4241  -7.3910  -7.3788  -7.3708  -7.3476  -7.3441  -7.3358  -7.3003
    -6.7926  -6.7436  -6.7393  -6.7331  -6.7242  -6.6907  -6.6698  -6.6555
    -5.3069  -5.1688  -5.1285  -5.0920  -5.0801  -5.0544  -5.0377  -5.0279
    -4.9922  -4.9738  -4.9415  -4.8639  -4.8163  -4.6432  -4.6069  -4.4321
    -3.5332  -3.5129  -3.4906  -3.4718  -3.4611  -3.4572  -3.4524  -3.4071
    -2.9866  -2.9572  -2.9385  -2.9226  -2.9134  -2.9050  -2.8929  -2.8625
    -0.4851  -0.4619  -0.3995  -0.3688  -0.2361  -0.1985  -0.1442  -0.0574
    -0.0505   0.0057   0.0106   0.0474   0.1292   0.1391   0.1707   0.2032
     0.2239   0.2364   0.2761   0.3145   0.3847   0.4547   0.5291   0.5566
     0.5958   0.6316   0.6443   0.6845   0.7048   0.7713   0.8020   0.8543
     0.9991   1.0260   1.0464   1.0715   1.1072   1.1378   1.1525   1.1765
     1.2128   1.2273   1.2493   1.2792   1.2911   1.3423   1.3656   1.4259
     1.4715   1.4961   1.5283   1.5523   1.5560   1.5890   1.6359   1.6827
     1.6857   1.6971   1.7166   1.7226   1.7479   1.7561   1.7711   1.7878
     1.8141   1.8443   1.8600   1.8787   1.9022   1.9168   1.9321   1.9478
     2.0069   2.0254   2.0407   2.0786   2.1325   2.1850   2.2031   2.2388

          k = 0.3750 0.1250-0.3750 (161300 PWs)   bands (ev):

   -17.5879 -17.5865 -17.5823 -17.5510 -17.5426 -17.5249 -17.5148 -17.4793
   -15.3808 -15.3661 -15.3587 -15.3343 -15.3338 -15.3303 -15.2805 -15.2794
   -13.8228 -13.8150 -13.8132 -13.8078 -13.8040 -13.8011 -13.7985 -13.7974
   -13.7953 -13.7859 -13.7818 -13.7786 -13.7756 -13.7710 -13.7693 -13.7692
   -13.7678 -13.7628 -13.7607 -13.7604 -13.7599 -13.7592 -13.7590 -13.7546
   -13.7510 -13.7500 -13.7499 -13.7488 -13.7483 -13.7477 -13.7456 -13.7347
   -13.7340 -13.7332 -13.7282 -13.7220 -13.7199 -13.7132 -13.7128 -13.7026
    -9.4830  -9.4514  -9.4392  -9.4168  -9.4031  -9.3802  -9.3561  -9.3091
    -9.1952  -9.1729  -9.1544  -9.1142  -9.0897  -9.0622  -9.0534  -9.0114
    -8.8526  -8.8328  -8.8122  -8.7742  -8.7706  -8.7504  -8.7448  -8.7254
    -8.7020  -8.6871  -8.6693  -8.6259  -8.6006  -8.5879  -8.5336  -8.5137
    -7.4247  -7.3939  -7.3785  -7.3706  -7.3587  -7.3396  -7.3371  -7.3035
    -6.7913  -6.7413  -6.7385  -6.7324  -6.7253  -6.6899  -6.6696  -6.6539
    -5.3134  -5.1399  -5.1208  -5.1044  -5.0783  -5.0576  -5.0450  -5.0304
    -5.0112  -4.9966  -4.9662  -4.9212  -4.7627  -4.5922  -4.5804  -4.4065
    -3.5361  -3.5144  -3.4936  -3.4671  -3.4637  -3.4570  -3.4467  -3.4095
    -2.9784  -2.9640  -2.9334  -2.9198  -2.9142  -2.9074  -2.8961  -2.8664
    -0.5360  -0.4886  -0.4819  -0.4282  -0.2383  -0.2102  -0.1188  -0.1106
    -0.0679  -0.0065   0.0193   0.0919   0.1285   0.1505   0.1759   0.1935
     0.2026   0.2188   0.2613   0.3005   0.4305   0.4939   0.5211   0.5541
     0.5791   0.6323   0.6728   0.7080   0.7350   0.7620   0.7871   0.8263
     1.0097   1.0622   1.0809   1.0999   1.1339   1.1687   1.1758   1.1862
     1.2055   1.2195   1.2484   1.2635   1.2832   1.3083   1.3399   1.3618
     1.5312   1.5534   1.5736   1.5890   1.5972   1.6193   1.6467   1.6666
     1.6888   1.6984   1.7227   1.7325   1.7430   1.7532   1.7722   1.7927
     1.8094   1.8168   1.8321   1.8535   1.8687   1.8839   1.8886   1.9063
     1.9860   1.9981   2.1238   2.1333   2.1727   2.2151   2.2586   2.2950

          k =-0.3750-0.1250-0.3750 (161300 PWs)   bands (ev):

   -17.5879 -17.5865 -17.5823 -17.5510 -17.5426 -17.5249 -17.5148 -17.4793
   -15.3808 -15.3661 -15.3587 -15.3343 -15.3338 -15.3303 -15.2805 -15.2794
   -13.8228 -13.8150 -13.8132 -13.8078 -13.8040 -13.8011 -13.7985 -13.7974
   -13.7953 -13.7859 -13.7818 -13.7786 -13.7756 -13.7710 -13.7693 -13.7692
   -13.7678 -13.7628 -13.7607 -13.7604 -13.7599 -13.7592 -13.7590 -13.7546
   -13.7510 -13.7500 -13.7499 -13.7488 -13.7483 -13.7477 -13.7456 -13.7347
   -13.7340 -13.7332 -13.7282 -13.7220 -13.7199 -13.7132 -13.7128 -13.7026
    -9.4839  -9.4625  -9.4460  -9.4118  -9.3862  -9.3633  -9.3570  -9.3237
    -9.2039  -9.1705  -9.1554  -9.1126  -9.0993  -9.0576  -9.0483  -9.0125
    -8.8447  -8.8251  -8.8121  -8.7956  -8.7670  -8.7533  -8.7392  -8.7279
    -8.6948  -8.6880  -8.6678  -8.6281  -8.6002  -8.5915  -8.5325  -8.5132
    -7.4272  -7.3939  -7.3790  -7.3683  -7.3585  -7.3395  -7.3370  -7.3028
    -6.7913  -6.7412  -6.7387  -6.7325  -6.7254  -6.6899  -6.6696  -6.6538
    -5.3148  -5.1345  -5.1209  -5.1108  -5.0822  -5.0578  -5.0379  -5.0262
    -5.0160  -4.9932  -4.9604  -4.9283  -4.7695  -4.5869  -4.5814  -4.4060
    -3.5363  -3.5141  -3.4934  -3.4675  -3.4634  -3.4572  -3.4467  -3.4095
    -2.9784  -2.9638  -2.9331  -2.9196  -2.9139  -2.9083  -2.8960  -2.8664
    -0.5360  -0.4912  -0.4812  -0.4283  -0.2330  -0.2185  -0.1262  -0.1078
    -0.0692  -0.0117   0.0326   0.0758   0.1437   0.1593   0.1731   0.1953
     0.2094   0.2287   0.2603   0.2914   0.4220   0.5001   0.5264   0.5412
     0.5671   0.6448   0.6561   0.7183   0.7234   0.7661   0.7936   0.8351
     1.0224   1.0600   1.0778   1.1053   1.1322   1.1460   1.1777   1.1988
     1.2184   1.2316   1.2486   1.2625   1.2797   1.2905   1.3369   1.3592
     1.5115   1.5466   1.5773   1.5894   1.6098   1.6317   1.6492   1.6622
     1.6841   1.7010   1.7182   1.7308   1.7409   1.7560   1.7677   1.7891
     1.8028   1.8176   1.8335   1.8542   1.8627   1.8858   1.8970   1.9147
     1.9851   2.0007   2.1264   2.1351   2.1655   2.2170   2.2622   2.2932

          k = 0.3750-0.1250 0.3750 (161300 PWs)   bands (ev):

   -17.5879 -17.5865 -17.5823 -17.5510 -17.5426 -17.5249 -17.5148 -17.4793
   -15.3808 -15.3661 -15.3587 -15.3343 -15.3338 -15.3303 -15.2805 -15.2794
   -13.8228 -13.8150 -13.8132 -13.8078 -13.8040 -13.8011 -13.7985 -13.7974
   -13.7953 -13.7859 -13.7818 -13.7786 -13.7756 -13.7710 -13.7693 -13.7692
   -13.7678 -13.7628 -13.7607 -13.7604 -13.7599 -13.7592 -13.7590 -13.7546
   -13.7510 -13.7500 -13.7499 -13.7488 -13.7483 -13.7477 -13.7456 -13.7347
   -13.7340 -13.7332 -13.7282 -13.7220 -13.7199 -13.7132 -13.7128 -13.7026
    -9.4837  -9.4622  -9.4461  -9.4139  -9.3837  -9.3643  -9.3556  -9.3254
    -9.2015  -9.1721  -9.1573  -9.1126  -9.0908  -9.0629  -9.0546  -9.0062
    -8.8437  -8.8376  -8.8092  -8.7836  -8.7706  -8.7539  -8.7379  -8.7241
    -8.7016  -8.6884  -8.6682  -8.6280  -8.6013  -8.5884  -8.5310  -8.5148
    -7.4269  -7.3942  -7.3790  -7.3680  -7.3587  -7.3395  -7.3371  -7.3027
    -6.7913  -6.7415  -6.7385  -6.7324  -6.7255  -6.6896  -6.6699  -6.6538
    -5.3147  -5.1351  -5.1216  -5.1093  -5.0829  -5.0579  -5.0390  -5.0256
    -5.0160  -4.9929  -4.9608  -4.9285  -4.7670  -4.5882  -4.5808  -4.4067
    -3.5359  -3.5144  -3.4933  -3.4681  -3.4632  -3.4562  -3.4474  -3.4096
    -2.9784  -2.9638  -2.9334  -2.9199  -2.9134  -2.9078  -2.8962  -2.8665
    -0.5345  -0.4889  -0.4793  -0.4303  -0.2392  -0.2180  -0.1212  -0.1033
    -0.0759  -0.0101   0.0288   0.0763   0.1459   0.1600   0.1768   0.1900
     0.2083   0.2271   0.2633   0.2858   0.4229   0.5039   0.5336   0.5420
     0.5609   0.6310   0.6681   0.7103   0.7347   0.7643   0.7920   0.8378
     1.0275   1.0538   1.0763   1.0962   1.1208   1.1572   1.1687   1.2053
     1.2122   1.2303   1.2528   1.2719   1.2790   1.2981   1.3406   1.3532
     1.5186   1.5558   1.5657   1.5814   1.6084   1.6345   1.6452   1.6772
     1.6917   1.7023   1.7160   1.7267   1.7475   1.7559   1.7744   1.7825
     1.7933   1.8135   1.8316   1.8538   1.8644   1.8860   1.8960   1.9152
     1.9842   1.9945   2.1256   2.1479   2.1743   2.2164   2.2520   2.2874

          k =-0.3750 0.1250 0.3750 (161300 PWs)   bands (ev):

   -17.5879 -17.5865 -17.5823 -17.5510 -17.5426 -17.5249 -17.5148 -17.4793
   -15.3808 -15.3661 -15.3587 -15.3343 -15.3338 -15.3303 -15.2805 -15.2794
   -13.8228 -13.8150 -13.8132 -13.8078 -13.8040 -13.8011 -13.7985 -13.7974
   -13.7953 -13.7859 -13.7818 -13.7786 -13.7756 -13.7710 -13.7693 -13.7692
   -13.7678 -13.7628 -13.7607 -13.7604 -13.7599 -13.7592 -13.7590 -13.7546
   -13.7510 -13.7500 -13.7499 -13.7488 -13.7483 -13.7477 -13.7456 -13.7347
   -13.7340 -13.7332 -13.7282 -13.7220 -13.7199 -13.7132 -13.7128 -13.7026
    -9.4830  -9.4505  -9.4406  -9.4148  -9.4039  -9.3823  -9.3546  -9.3096
    -9.1971  -9.1688  -9.1528  -9.1159  -9.0974  -9.0604  -9.0481  -9.0133
    -8.8449  -8.8303  -8.8112  -8.7913  -8.7673  -8.7581  -8.7363  -8.7271
    -8.6990  -8.6872  -8.6671  -8.6281  -8.6008  -8.5858  -8.5331  -8.5148
    -7.4246  -7.3942  -7.3782  -7.3708  -7.3584  -7.3397  -7.3375  -7.3034
    -6.7913  -6.7412  -6.7387  -6.7323  -6.7254  -6.6896  -6.6699  -6.6538
    -5.3141  -5.1407  -5.1195  -5.1028  -5.0787  -5.0588  -5.0446  -5.0290
    -5.0120  -4.9949  -4.9657  -4.9237  -4.7647  -4.5913  -4.5801  -4.4063
    -3.5358  -3.5146  -3.4933  -3.4681  -3.4626  -3.4567  -3.4474  -3.4096
    -2.9785  -2.9639  -2.9337  -2.9199  -2.9137  -2.9076  -2.8959  -2.8664
    -0.5381  -0.4887  -0.4788  -0.4285  -0.2341  -0.2092  -0.1267  -0.1145
    -0.0635  -0.0073   0.0177   0.0997   0.1239   0.1512   0.1775   0.1878
     0.2035   0.2244   0.2593   0.2979   0.4278   0.4910   0.5225   0.5514
     0.5858   0.6373   0.6767   0.7088   0.7253   0.7658   0.7873   0.8273
     1.0067   1.0671   1.0836   1.1121   1.1316   1.1512   1.1736   1.1935
     1.2100   1.2257   1.2395   1.2625   1.2772   1.3100   1.3344   1.3628
     1.5223   1.5495   1.5809   1.6015   1.6103   1.6189   1.6433   1.6698
[...]
    -0.3115  -0.2903  -0.2557  -0.2251  -0.2020  -0.1840  -0.1664  -0.1565
    -0.1209  -0.0977  -0.0844  -0.0355   0.0718   0.1366   0.1643   0.2113
     0.2434   0.2626   0.2716   0.2839   0.3273   0.3606   0.3765   0.4524
     0.6182   0.6606   0.6963   0.7202   0.7375   0.7632   0.7905   0.8146
     0.8479   0.8644   0.8883   0.9116   0.9223   0.9576   0.9827   1.0083
     1.0691   1.0758   1.0948   1.1253   1.1367   1.1519   1.2028   1.2140
     1.2827   1.2904   1.3131   1.3373   1.3443   1.3613   1.3680   1.3962
     1.4232   1.4567   1.4645   1.4742   1.4906   1.5009   1.5138   1.5223
     1.5513   1.5629   1.5806   1.6045   1.6163   1.6435   1.6755   1.6905

          k = 0.3698-0.3666-0.3701 (161235 PWs)   bands (ev):

   -18.0412 -17.9548 -17.9437 -17.9397 -17.9133 -17.8856 -17.8779 -17.8397
   -15.8428 -15.7588 -15.7519 -15.7251 -15.7058 -15.6694 -15.6516 -15.6073
   -14.3514 -14.3299 -14.3247 -14.3085 -14.3053 -14.3005 -14.2970 -14.2898
   -14.2871 -14.2833 -14.2830 -14.2819 -14.2811 -14.2761 -14.2661 -14.2626
   -14.2618 -14.2601 -14.2526 -14.2519 -14.2479 -14.2456 -14.2424 -14.2416
   -14.2409 -14.2407 -14.2357 -14.2343 -14.2312 -14.2299 -14.2293 -14.2267
   -14.2223 -14.2176 -14.2085 -14.2033 -14.2011 -14.2009 -14.1929 -14.1915
    -9.8407  -9.8011  -9.7905  -9.7687  -9.7505  -9.7331  -9.6860  -9.6584
    -9.6024  -9.5121  -9.4920  -9.4391  -9.4224  -9.3801  -9.3437  -9.2952
    -9.2100  -9.1807  -9.1596  -9.1548  -9.1179  -9.0772  -9.0725  -9.0303
    -9.0185  -9.0068  -8.9821  -8.9679  -8.9589  -8.9251  -8.9089  -8.8891
    -7.8626  -7.7648  -7.7519  -7.7381  -7.7298  -7.6976  -7.6779  -7.6593
    -7.2146  -7.1570  -7.1518  -7.1399  -7.1083  -7.0750  -7.0528  -6.9911
    -5.5640  -5.5326  -5.4492  -5.4306  -5.4146  -5.4084  -5.3836  -5.3701
    -5.3599  -5.3391  -5.3223  -5.3038  -5.2102  -5.1806  -5.1481  -5.0084
    -3.9440  -3.8873  -3.8688  -3.8579  -3.8566  -3.8458  -3.8189  -3.8097
    -3.4008  -3.3534  -3.3397  -3.3184  -3.3150  -3.2870  -3.2770  -3.2417
    -0.6443  -0.5451  -0.4617  -0.4454  -0.3931  -0.3744  -0.3505  -0.3308
    -0.3123  -0.2696  -0.2587  -0.2239  -0.2038  -0.1918  -0.1787  -0.1535
    -0.1378  -0.0967  -0.0696  -0.0119   0.0429   0.1130   0.1748   0.2007
     0.2338   0.2507   0.2795   0.2880   0.3399   0.3695   0.3872   0.4471
     0.6164   0.6436   0.6958   0.7135   0.7416   0.7754   0.8017   0.8156
     0.8319   0.8610   0.8780   0.9128   0.9261   0.9586   0.9815   1.0183
     1.0603   1.0809   1.1022   1.1276   1.1405   1.1555   1.2076   1.2154
     1.2692   1.2879   1.3179   1.3268   1.3460   1.3616   1.3750   1.4005
     1.4313   1.4483   1.4593   1.4709   1.4852   1.5068   1.5103   1.5331
     1.5484   1.5593   1.5747   1.6108   1.6241   1.6436   1.6710   1.6907

     highest occupied level (ev):     2.0938

!    total energy              =  -16707.43399156 Ry
     Harris-Foulkes estimate   =  -16707.43399157 Ry
     estimated scf accuracy    <          3.0E-09 Ry

     total all-electron energy =   -678114.493676 Ry

     The total energy is the sum of the following terms:

     one-electron contribution =    -955.31940843 Ry
     hartree contribution      =     676.69508545 Ry
     xc contribution           =    -795.79418661 Ry
     ewald contribution        =   -1214.39226731 Ry
     DFT-D3 Dispersion         =      -0.64364839 Ry
     one-center paw contrib.   =  -14417.97956628 Ry

     convergence has been achieved in   9 iterations

     Forces acting on atoms (cartesian axes, Ry/au):

     atom    1 type  1   force =    -0.00066774    0.00108505    0.00162170
     atom    2 type  1   force =    -0.00110107    0.00051061   -0.00079170
     atom    3 type  1   force =    -0.00050283    0.00123095    0.00053872
     atom    4 type  1   force =    -0.00001894    0.00058904    0.00212321
     atom    5 type  1   force =     0.00010352    0.00022465    0.00028073
     atom    6 type  1   force =     0.00022335    0.00091854    0.00036287
     atom    7 type  1   force =     0.00175814    0.00052650   -0.00127749
     atom    8 type  1   force =     0.00013329    0.00014456    0.00061664
     atom    9 type  2   force =     0.00069749   -0.00047405   -0.00059192
     atom   10 type  2   force =    -0.00132969    0.00035797   -0.00017739
     atom   11 type  2   force =    -0.00078254    0.00069712   -0.00031191
     atom   12 type  2   force =    -0.00019501   -0.00151299    0.00003204
     atom   13 type  2   force =     0.00066289   -0.00010217    0.00027359
     atom   14 type  2   force =    -0.00019691   -0.00050524    0.00006225
     atom   15 type  2   force =    -0.00003911   -0.00127439   -0.00016568
     atom   16 type  2   force =     0.00042472   -0.00078153    0.00039145
     atom   17 type  2   force =     0.00093776    0.00007865    0.00000699
     atom   18 type  2   force =     0.00080098    0.00038097   -0.00004618
     atom   19 type  2   force =    -0.00190434   -0.00105933    0.00031665
     atom   20 type  2   force =    -0.00035698    0.00033451   -0.00000101
     atom   21 type  2   force =     0.00027065    0.00112852    0.00025835
     atom   22 type  2   force =    -0.00003987    0.00091543    0.00036859
     atom   23 type  2   force =    -0.00210012   -0.00089525    0.00030075
     atom   24 type  2   force =    -0.00010488   -0.00027588   -0.00012375
     atom   25 type  2   force =     0.00052704    0.00069230    0.00018002
     atom   26 type  2   force =    -0.00036412    0.00030707   -0.00005832
     atom   27 type  2   force =    -0.00086458    0.00023588    0.00007210
     atom   28 type  2   force =    -0.00005572    0.00006286   -0.00052394
     atom   29 type  2   force =     0.00015767    0.00079182   -0.00041984
     atom   30 type  2   force =     0.00000040    0.00087909    0.00077687
     atom   31 type  2   force =     0.00037216    0.00007687    0.00170230
     atom   32 type  2   force =    -0.00098855    0.00129237    0.00031325
     atom   33 type  3   force =     0.00256375   -0.00013448    0.00114474
     atom   34 type  3   force =     0.00028635    0.00001749   -0.00012630
     atom   35 type  3   force =    -0.00267331    0.00274492    0.00093618
     atom   36 type  3   force =     0.00344360    0.00027901   -0.00412477
     atom   37 type  3   force =    -0.00367163    0.00002838   -0.00029031
     atom   38 type  3   force =    -0.00084946   -0.00064280    0.00188115
     atom   39 type  3   force =     0.00411117    0.00119778   -0.00340404
     atom   40 type  3   force =    -0.00166777   -0.00293385    0.00138659
     atom   41 type  4   force =     0.00015321   -0.00227831   -0.00133493
     atom   42 type  4   force =     0.00102713   -0.00084303   -0.00088359
     atom   43 type  4   force =    -0.00273918   -0.00167338    0.00073287
     atom   44 type  4   force =    -0.00337962   -0.00007933    0.00427512
     atom   45 type  4   force =     0.00129057    0.00069584    0.00010266
     atom   46 type  4   force =     0.00171515    0.00026361   -0.00050999
     atom   47 type  4   force =    -0.00262132   -0.00208835    0.00316460
     atom   48 type  4   force =     0.00211639    0.00392861   -0.00194521
     atom   49 type  4   force =    -0.00265367    0.00246044   -0.00108299
     atom   50 type  4   force =    -0.00225038   -0.00204637   -0.00122616
     atom   51 type  4   force =     0.00745291    0.00184652   -0.00189319
     atom   52 type  4   force =    -0.00069431    0.00206230   -0.00329120
     atom   53 type  4   force =     0.00170147   -0.00139717   -0.00014217
     atom   54 type  4   force =     0.00127147    0.00005964   -0.00217198
     atom   55 type  4   force =    -0.00136159    0.00268887    0.00038454
     atom   56 type  4   force =    -0.00115982   -0.00117282    0.00118048
     atom   57 type  5   force =    -0.00207667   -0.00103389   -0.00184930
     atom   58 type  5   force =     0.00001395   -0.00099574    0.00073555
     atom   59 type  5   force =    -0.00063907   -0.00155779    0.00055632
     atom   60 type  5   force =    -0.00021537   -0.00098148    0.00269571
     atom   61 type  5   force =    -0.00049017    0.00080497    0.00013244
     atom   62 type  5   force =    -0.00082858    0.00077534   -0.00056264
     atom   63 type  5   force =    -0.00006288    0.00023762   -0.00123831
     atom   64 type  5   force =    -0.00028245   -0.00032741   -0.00039209
     atom   65 type  5   force =     0.00296028    0.00290416    0.00123695
     atom   66 type  5   force =     0.00183634   -0.00053013   -0.00040646
     atom   67 type  5   force =     0.00197240    0.00030366   -0.00205308
     atom   68 type  5   force =     0.00068616    0.00079604   -0.00194078
     atom   69 type  5   force =     0.00124869   -0.00023099   -0.00065914
     atom   70 type  5   force =    -0.00004834   -0.00009527   -0.00036919
     atom   71 type  5   force =     0.00034471    0.00131650    0.00211567
     atom   72 type  5   force =     0.00167395   -0.00138129    0.00079799
     atom   73 type  5   force =     0.00014499    0.00198639    0.00101508
     atom   74 type  5   force =    -0.00028630    0.00101120    0.00098088
     atom   75 type  5   force =     0.00081380   -0.00052405   -0.00017264
     atom   76 type  5   force =     0.00021548   -0.00085801    0.00044498
     atom   77 type  5   force =    -0.00115154    0.00132427   -0.00064888
     atom   78 type  5   force =    -0.00017078    0.00074075   -0.00037843
     atom   79 type  5   force =     0.00055323   -0.00134205   -0.00057008
     atom   80 type  5   force =     0.00039576    0.00012802    0.00005943
     atom   81 type  5   force =     0.00097511   -0.00226137    0.00112988
     atom   82 type  5   force =    -0.00033622    0.00007770   -0.00083147
     atom   83 type  5   force =    -0.00055330   -0.00277982    0.00011039
     atom   84 type  5   force =     0.00058277   -0.00213829    0.00179621
     atom   85 type  5   force =     0.00045029    0.00036312    0.00018023
     atom   86 type  5   force =    -0.00034429   -0.00078291    0.00022209
     atom   87 type  5   force =    -0.00051047   -0.00011036   -0.00074455
     atom   88 type  5   force =    -0.00050844    0.00030498    0.00076299
     atom   89 type  5   force =    -0.00217453   -0.00089052   -0.00242226
     atom   90 type  5   force =     0.00071826    0.00005430    0.00061782
     atom   91 type  5   force =    -0.00266374   -0.00244103    0.00063411
     atom   92 type  5   force =     0.00088622   -0.00145607    0.00130330
     atom   93 type  5   force =    -0.00015593   -0.00010610    0.00042332
     atom   94 type  5   force =    -0.00005209   -0.00011585   -0.00053469
     atom   95 type  5   force =     0.00010742    0.00075556   -0.00050491
     atom   96 type  5   force =     0.00010317   -0.00050821   -0.00054450

     Total force =     0.023401     Total SCF correction =     0.000188


     Computing stress (Cartesian axis) and pressure

          total   stress  (Ry/bohr**3)                   (kbar)     P=   -0.06
  -0.00000210  -0.00000207  -0.00001487         -0.31     -0.30     -2.19
  -0.00000207  -0.00000379  -0.00000012         -0.30     -0.56     -0.02
  -0.00001487  -0.00000012   0.00000457         -2.19     -0.02      0.67


     number of scf cycles    =  44
     number of bfgs steps    =  43

     enthalpy old            =  -16707.4334931608 Ry
     enthalpy new            =  -16707.4339915636 Ry

     CASE: enthalpy_new < enthalpy_old

     new trust radius        =       0.0301910768 bohr
     new conv_thr            =       0.0000000050 Ry

     new unit-cell volume =  14024.06823 a.u.^3 (  2078.15248 Ang^3 )
     density =      4.05103 g/cm^3

CELL_PARAMETERS (alat= 23.71984200)
   1.013812512   0.000000000   0.000000000
   0.000000000   1.022621338   0.000000000
   0.000000000   0.000000000   1.013598930

ATOMIC_POSITIONS (crystal)
Pb      -0.012156401  -0.024806163  -0.003873048
Pb       0.490179610  -0.029022515   0.006645472
Pb      -0.008278060   0.477503409   0.002727164
Pb       0.020400510  -0.018983586   0.502000761
Pb       0.484270514   0.475359052  -0.000733385
Pb       0.019332812   0.480526809   0.503279551
Pb       0.519531846  -0.019522552   0.507281064
Pb       0.519460067   0.484664468   0.503340735
I        0.236985251  -0.004171979  -0.029323099
I        0.736937069  -0.017216494   0.040796284
I        0.239785817   0.481756755   0.065315533
I        0.270019617  -0.021426225   0.522914776
I        0.739175987   0.484226463  -0.045257897
I        0.273001416   0.486853722   0.458794838
I        0.769450649  -0.004834014   0.474538211
I        0.773661187   0.469052355   0.541944552
I       -0.031404041   0.230385165   0.002830001
I        0.469600204   0.226398954   0.011087676
I       -0.008525799   0.729432022   0.002854141
I        0.045234794   0.232788776   0.502487296
I        0.470845855   0.726701986  -0.003383647
I        0.017023196   0.731975072   0.509308945
I        0.535095612   0.233501629   0.504909117
I        0.542458732   0.733831391   0.516678715
I        0.027771594  -0.032133142   0.251157601
I        0.474703942  -0.035126594   0.257500851
I       -0.035606739   0.479390377   0.255446687
I       -0.032699063  -0.030029021   0.750288205
I        0.547810804   0.479895959   0.249644333
I        0.049742781   0.477119205   0.755944979
I        0.533862108  -0.026854780   0.757170971
I        0.459944828   0.469047064   0.750279320
C        0.245256340   0.253642216   0.262375752
C        0.755980032   0.262493329   0.261438550
C        0.250904418   0.752883921   0.272099147
C        0.257247146   0.251900099   0.732998239
C        0.756780555   0.785690825   0.257186948
C        0.255548017   0.777691129   0.747066337
C        0.752865067   0.255168528   0.756020508
C        0.753541780   0.751470275   0.741297123
N        0.185309833   0.206022551   0.193048043
N        0.678212364   0.215051292   0.212939837
N        0.161541052   0.701948012   0.271984975
N        0.188924950   0.233004475   0.808119571
N        0.665337313   0.738479068   0.258994625
N        0.169872755   0.736817170   0.787216719
N        0.691850510   0.206806498   0.823608790
N        0.676919608   0.721958644   0.803499636
N        0.318536769   0.207967724   0.318566127
N        0.842149504   0.217035189   0.294811818
N        0.342564193   0.712836750   0.246734708
N        0.343775909   0.198601355   0.717076306
N        0.848563069   0.739771834   0.248435124
N        0.337917879   0.724286038   0.716277615
N        0.815335511   0.208106753   0.689085993
N        0.838269263   0.696411646   0.721857015
H        0.234582925   0.337299342   0.274526397
H        0.747845214   0.346218480   0.274748217
H        0.249762517   0.834899700   0.294922846
H        0.240651344   0.316035012   0.679050542
H        0.756941833   0.870355970   0.263863418
H        0.259072851   0.862293151   0.739431655
H        0.751847730   0.340186003   0.756492471
H        0.746399094   0.827293919   0.702787727
H        0.189234844   0.127979395   0.177928047
H        0.681555486   0.138656510   0.190455379
H        0.155056614   0.624610149   0.254374956
H        0.198608230   0.174341852   0.861980527
H        0.654471830   0.659305634   0.255397407
H        0.158197368   0.658173200   0.794355638
H        0.684837470   0.127619619   0.825064957
H        0.679148478   0.653246207   0.844877253
H        0.131842715   0.245993160   0.148640104
H        0.615562743   0.256862355   0.186048016
H        0.096874564   0.737919010   0.302129628
H        0.124517243   0.279839610   0.814534411
H        0.600133420   0.783018356   0.270894209
H        0.110569059   0.783680841   0.812849976
H        0.646457144   0.248176493   0.874940945
H        0.614189967   0.769803017   0.815702731
H        0.335799229   0.130558349   0.310912022
H        0.854721208   0.138686182   0.289536758
H        0.351103977   0.638267082   0.220487098
H        0.366002106   0.137418245   0.763157279
H        0.858595073   0.660824422   0.242360315
H        0.344632976   0.644984733   0.723452530
H        0.824791795   0.129015052   0.686974290
H        0.849418664   0.623557200   0.751752483
H        0.361495452   0.248482637   0.372981261
H        0.897712210   0.259349174   0.334064020
H        0.404970275   0.762115028   0.240901489
H        0.392772353   0.218559281   0.656483924
H        0.913485614   0.786213493   0.242459721
H        0.399528623   0.760990956   0.680682849
H        0.858174222   0.250615487   0.636641680
H        0.892677925   0.722548734   0.668491838



     Writing output data file FAPbI83_vcrelax.save/
     NEW-OLD atomic charge density approx. for the potential

     Check: negative core charge=   -0.000002
     extrapolated charge  431.89015, renormalised to  432.00000

     total cpu time spent up to now is   595037.5 secs

     Self-consistent Calculation

     iteration #  1     ecut=    80.00 Ry     beta= 0.70
     Davidson diagonalization with overlap
     ethr =  1.00E-06,  avg # of iterations =  4.0

     total cpu time spent up to now is   596964.9 secs

     total energy              =  -16707.43386673 Ry
     Harris-Foulkes estimate   =  -16707.61139824 Ry
     estimated scf accuracy    <       0.00118601 Ry

     iteration #  2     ecut=    80.00 Ry     beta= 0.70
     Davidson diagonalization with overlap
     ethr =  2.75E-07,  avg # of iterations =  3.0

     total cpu time spent up to now is   598152.3 secs

     total energy              =  -16707.43419196 Ry
     Harris-Foulkes estimate   =  -16707.43432784 Ry
     estimated scf accuracy    <       0.00039407 Ry

     iteration #  3     ecut=    80.00 Ry     beta= 0.70
     Davidson diagonalization with overlap
     ethr =  9.12E-08,  avg # of iterations =  4.0

     total cpu time spent up to now is   599347.7 secs

     total energy              =  -16707.43428726 Ry
     Harris-Foulkes estimate   =  -16707.43430456 Ry
     estimated scf accuracy    <       0.00011717 Ry

     iteration #  4     ecut=    80.00 Ry     beta= 0.70
     Davidson diagonalization with overlap
     ethr =  2.71E-08,  avg # of iterations =  4.0

     total cpu time spent up to now is   600352.9 secs

     total energy              =  -16707.43431588 Ry
     Harris-Foulkes estimate   =  -16707.43431258 Ry
     estimated scf accuracy    <       0.00004489 Ry

     iteration #  5     ecut=    80.00 Ry     beta= 0.70
     Davidson diagonalization with overlap
     ethr =  1.04E-08,  avg # of iterations =  3.4

     total cpu time spent up to now is   601293.9 secs

     total energy              =  -16707.43432298 Ry
     Harris-Foulkes estimate   =  -16707.43432274 Ry
     estimated scf accuracy    <       0.00001902 Ry

     iteration #  6     ecut=    80.00 Ry     beta= 0.70
     Davidson diagonalization with overlap
     ethr =  4.40E-09,  avg # of iterations =  3.7

     total cpu time spent up to now is   602344.2 secs

     total energy              =  -16707.43432458 Ry
     Harris-Foulkes estimate   =  -16707.43432646 Ry
     estimated scf accuracy    <       0.00000397 Ry

     iteration #  7     ecut=    80.00 Ry     beta= 0.70
     Davidson diagonalization with overlap
     ethr =  9.20E-10,  avg # of iterations =  4.0

     total cpu time spent up to now is   603382.0 secs

     total energy              =  -16707.43432544 Ry
     Harris-Foulkes estimate   =  -16707.43432565 Ry
     estimated scf accuracy    <       0.00000042 Ry

     iteration #  8     ecut=    80.00 Ry     beta= 0.70
     Davidson diagonalization with overlap
     ethr =  9.65E-11,  avg # of iterations =  4.0

     total cpu time spent up to now is   604442.9 secs

     total energy              =  -16707.43432554 Ry
     Harris-Foulkes estimate   =  -16707.43432557 Ry
     estimated scf accuracy    <       0.00000005 Ry

     iteration #  9     ecut=    80.00 Ry     beta= 0.70
     Davidson diagonalization with overlap
