
     Program PWSCF v.6.4 starts on 30May2020 at 15:40:28 

     This program is part of the open-source Quantum ESPRESSO suite
     for quantum simulation of materials; please cite
         "P. Giannozzi et al., J. Phys.:Condens. Matter 21 395502 (2009);
         "P. Giannozzi et al., J. Phys.:Condens. Matter 29 465901 (2017);
          URL http://www.quantum-espresso.org", 
     in publications or presentations arising from this work. More details at
     http://www.quantum-espresso.org/quote

     Parallel version (MPI), running on    32 processors

     MPI processes distributed on     1 nodes
     R & G space division:  proc/nbgrp/npool/nimage =      32
     Waiting for input...
     Reading input from standard input
     Message from routine read_cards :
     DEPRECATED: no units specified in CELL_PARAMETERS card

     Current dimensions of program PWSCF are:
     Max number of different atomic species (ntypx) = 10
     Max number of k-points (npk) =  40000
     Max angular momentum in pseudopotentials (lmaxx) =  3
               file Pb.pbe-dn-kjpaw_psl.1.0.0.UPF: wavefunction(s)  6S 6P 5D renormalized
               file I.pbe-n-kjpaw_psl.1.0.0.UPF: wavefunction(s)  5S renormalized
               file C.pbe-n-kjpaw_psl.1.0.0.UPF: wavefunction(s)  2S 2P renormalized
               file N.pbe-n-kjpaw_psl.1.0.0.UPF: wavefunction(s)  2S renormalized
               file H.pbe-kjpaw_psl.1.0.0.UPF: wavefunction(s)  1S renormalized

     --------------------------------------------
     Parameters for DFT-D3 Dispersion Correction:
     --------------------------------------------
       Reference C6 values for interpolation: 

         atom   Coordination number   C6
         H          0.912             6.05
         H          0.000            15.18
         C          0.000            98.23
         C          0.987            86.49
         C          1.998            58.72
         C          2.999            51.56
         C          3.984            36.41
         N          0.000            50.54
         N          0.994            44.25
         N          2.014            39.35
         N          2.990            31.16
         I          0.000           703.93
         I          0.997           717.00
         Pb         0.000          1477.63
         Pb         0.938          1266.00
         Pb         1.936          1088.91
         Pb         2.908          1048.37
         Pb         3.910           910.57

       Values used:

         atom   Coordination number  R0_AB[au]  C6      C8
         Pb         4.809            4.041    910.57 144158.39
         Pb         4.835            4.041    910.57 144158.34
         Pb         4.714            4.041    910.57 144158.71
         Pb         4.812            4.041    910.57 144158.39
         Pb         4.689            4.041    910.58 144158.84
         Pb         4.752            4.041    910.57 144158.55
         Pb         4.829            4.041    910.57 144158.35
         Pb         4.704            4.041    910.57 144158.76
         I          1.938            3.532    717.00  65855.99
         I          1.971            3.532    717.00  65856.00
         I          1.836            3.532    717.00  65855.98
         I          1.932            3.532    717.00  65855.99
         I          1.848            3.532    717.00  65855.98
         I          1.881            3.532    717.00  65855.99
         I          1.964            3.532    717.00  65856.00
         I          1.911            3.532    717.00  65855.99
         I          1.904            3.532    717.00  65855.99
         I          1.896            3.532    717.00  65855.99
         I          1.961            3.532    717.00  65856.00
         I          1.964            3.532    717.00  65856.00
         I          1.957            3.532    717.00  65856.00
         I          2.011            3.532    717.00  65856.00
         I          1.967            3.532    717.00  65856.00
         I          1.958            3.532    717.00  65856.00
         I          1.865            3.532    717.00  65855.98
         I          1.943            3.532    717.00  65855.99
         I          1.923            3.532    717.00  65855.99
         I          1.959            3.532    717.00  65856.00
         I          1.812            3.532    717.00  65855.97
         I          1.850            3.532    717.00  65855.98
         I          1.958            3.532    717.00  65856.00
         I          1.916            3.532    717.00  65855.99
         C          3.068            2.750     51.06   1476.75
         C          3.068            2.750     51.06   1476.67
         C          3.068            2.750     51.06   1476.71
         C          3.070            2.750     51.05   1476.36
         C          3.079            2.750     51.00   1475.07
         C          3.070            2.750     51.05   1476.38
         C          3.070            2.750     51.05   1476.34
         C          3.069            2.750     51.05   1476.59
         N          3.102            2.478     31.23    689.04
         N          3.099            2.478     31.24    689.08
         N          3.113            2.478     31.23    688.91
         N          3.103            2.478     31.23    689.03
         N          3.101            2.478     31.23    689.05
         N          3.100            2.478     31.23    689.06
         N          3.101            2.478     31.23    689.05
         N          3.108            2.478     31.23    688.97
         N          3.099            2.478     31.23    689.07
         N          3.105            2.478     31.23    689.01
         N          3.109            2.478     31.23    688.95
         N          3.106            2.478     31.23    688.99
         N          3.107            2.478     31.23    688.98
         N          3.102            2.478     31.23    689.04
         N          3.100            2.478     31.23    689.06
         N          3.108            2.478     31.23    688.97
         H          1.021            2.062      6.16     74.51
         H          1.019            2.062      6.16     74.52
         H          1.016            2.062      6.17     74.55
         H          1.016            2.062      6.17     74.55
         H          1.024            2.062      6.16     74.47
         H          1.022            2.062      6.16     74.49
         H          1.021            2.062      6.16     74.50
         H          1.015            2.062      6.17     74.56
         H          1.024            2.062      6.16     74.47
         H          1.056            2.062      6.14     74.21
         H          1.036            2.062      6.15     74.36
         H          1.058            2.062      6.14     74.19
         H          1.059            2.062      6.14     74.18
         H          1.051            2.062      6.14     74.25
         H          1.027            2.062      6.16     74.45
         H          1.056            2.062      6.14     74.21
         H          1.060            2.062      6.14     74.18
         H          1.035            2.062      6.15     74.37
         H          1.045            2.062      6.15     74.30
         H          1.046            2.062      6.14     74.28
         H          1.043            2.062      6.15     74.31
         H          1.031            2.062      6.16     74.41
         H          1.042            2.062      6.15     74.31
         H          1.049            2.062      6.14     74.26
         H          1.037            2.062      6.15     74.35
         H          1.026            2.062      6.16     74.46
         H          1.026            2.062      6.16     74.45
         H          1.027            2.062      6.16     74.44
         H          1.061            2.062      6.14     74.17
         H          1.061            2.062      6.14     74.17
         H          1.039            2.062      6.15     74.34
         H          1.024            2.062      6.16     74.48
         H          1.041            2.062      6.15     74.32
         H          1.059            2.062      6.14     74.18
         H          1.048            2.062      6.14     74.27
         H          1.085            2.062      6.12     74.01
         H          1.054            2.062      6.14     74.22
         H          1.044            2.062      6.15     74.30
         H          1.040            2.062      6.15     74.33
         H          1.092            2.062      6.12     73.97

         Molecular C6 ( Ry / a.u.^6 ) =   1270635.57


     Subspace diagonalization in iterative solution of the eigenvalue problem:
     a serial algorithm will be used


     Parallelization info
     --------------------
     sticks:   dense  smooth     PW     G-vecs:    dense   smooth      PW
     Min         694     694    179                77748    77748   10177
     Max         695     695    180                77751    77751   10180
     Sum       22211   22211   5733              2487985  2487985  325717



     bravais-lattice index     =            0
     lattice parameter (alat)  =      23.7198  a.u.
     unit-cell volume          =   14008.9104 (a.u.)^3
     number of atoms/cell      =           96
     number of atomic types    =            5
     number of electrons       =       432.00
     number of Kohn-Sham states=          216
     kinetic-energy cutoff     =     120.0000  Ry
     charge density cutoff     =     480.0000  Ry
     convergence threshold     =      1.0E-07
     mixing beta               =       0.7000
     number of iterations used =            8  plain     mixing
     Exchange-correlation      = SLA PW PBX PBC ( 1  4  3  4 0 0)
     nstep                     =          100


     celldm(1)=  23.719842  celldm(2)=   0.000000  celldm(3)=   0.000000
     celldm(4)=   0.000000  celldm(5)=   0.000000  celldm(6)=   0.000000

     crystal axes: (cart. coord. in units of alat)
               a(1) = (   1.012870   0.000000   0.000000 )  
               a(2) = (   0.000000   1.020694   0.000000 )  
               a(3) = (   0.000000   0.000000   1.015360 )  

     reciprocal axes: (cart. coord. in units 2 pi/alat)
               b(1) = (  0.987294  0.000000  0.000000 )  
               b(2) = (  0.000000  0.979726  0.000000 )  
               b(3) = (  0.000000  0.000000  0.984872 )  


     PseudoPot. # 1 for Pb read from file:
     ../Pseudopotential/Pb.pbe-dn-kjpaw_psl.1.0.0.UPF
     MD5 check sum: 684fc8fbce61a260853528575e4d9ab7
     Pseudo is Projector augmented-wave + core cor, Zval = 14.0
     Generated using "atomic" code by A. Dal Corso v.6.3
     Shape of augmentation charge: PSQ
     Using radial grid of 1281 points,  6 beta functions with: 
                l(1) =   0
                l(2) =   0
                l(3) =   1
                l(4) =   1
                l(5) =   2
                l(6) =   2
     Q(r) pseudized with 0 coefficients 


     PseudoPot. # 2 for I  read from file:
     ../Pseudopotential/I.pbe-n-kjpaw_psl.1.0.0.UPF
     MD5 check sum: cd3d296c3308a581e1559a0c8a554cb5
     Pseudo is Projector augmented-wave + core cor, Zval =  7.0
     Generated using "atomic" code by A. Dal Corso v.6.3
     Shape of augmentation charge: PSQ
     Using radial grid of 1247 points,  6 beta functions with: 
                l(1) =   0
                l(2) =   0
                l(3) =   1
                l(4) =   1
                l(5) =   2
                l(6) =   2
     Q(r) pseudized with 0 coefficients 


     PseudoPot. # 3 for C  read from file:
     ../Pseudopotential/C.pbe-n-kjpaw_psl.1.0.0.UPF
     MD5 check sum: 5f16ad9a65e90284d1d834d4ab3b0f7d
     Pseudo is Projector augmented-wave + core cor, Zval =  4.0
     Generated using "atomic" code by A. Dal Corso v.6.3
     Shape of augmentation charge: PSQ
     Using radial grid of 1073 points,  4 beta functions with: 
                l(1) =   0
                l(2) =   0
                l(3) =   1
                l(4) =   1
     Q(r) pseudized with 0 coefficients 


     PseudoPot. # 4 for N  read from file:
     ../Pseudopotential/N.pbe-n-kjpaw_psl.1.0.0.UPF
     MD5 check sum: 14c48229446f9f2d411169a3abcbc3fa
     Pseudo is Projector augmented-wave + core cor, Zval =  5.0
     Generated using "atomic" code by A. Dal Corso v.6.3
     Shape of augmentation charge: PSQ
     Using radial grid of 1085 points,  4 beta functions with: 
                l(1) =   0
                l(2) =   0
                l(3) =   1
                l(4) =   1
     Q(r) pseudized with 0 coefficients 


     PseudoPot. # 5 for H  read from file:
     ../Pseudopotential/H.pbe-kjpaw_psl.1.0.0.UPF
     MD5 check sum: d81a744832360e4a8af0b0b5b123bc2a
     Pseudo is Projector augmented-wave, Zval =  1.0
     Generated using "atomic" code by A. Dal Corso v.6.3MaX
     Shape of augmentation charge: PSQ
     Using radial grid of  929 points,  2 beta functions with: 
                l(1) =   0
                l(2) =   0
     Q(r) pseudized with 0 coefficients 


     atomic species   valence    mass     pseudopotential
        Pb            14.00   207.97600     Pb( 1.00)
        I              7.00   126.90400     I ( 1.00)
        C              4.00    12.00000     C ( 1.00)
        N              5.00    14.00300     N ( 1.00)
        H              1.00     1.00700     H ( 1.00)

     No symmetry found



   Cartesian axes

     site n.     atom                  positions (alat units)
         1           Pb  tau(   1) = (  -0.0157872  -0.0211427   0.0038214  )
         2           Pb  tau(   2) = (   0.4900943  -0.0236106   0.0032995  )
         3           Pb  tau(   3) = (  -0.0112384   0.4936453   0.0085658  )
         4           Pb  tau(   4) = (   0.0240123  -0.0152961   0.5181835  )
         5           Pb  tau(   5) = (   0.4924319   0.4900351  -0.0013084  )
         6           Pb  tau(   6) = (   0.0236349   0.4931558   0.5128242  )
         7           Pb  tau(   7) = (   0.5327171  -0.0194444   0.5129555  )
         8           Pb  tau(   8) = (   0.5284911   0.4952954   0.5122667  )
         9           I   tau(   9) = (   0.2388592  -0.0090065  -0.0368497  )
        10           I   tau(  10) = (   0.7448573  -0.0108884   0.0388394  )
        11           I   tau(  11) = (   0.2400672   0.4977452   0.0641060  )
        12           I   tau(  12) = (   0.2740657  -0.0306202   0.5313013  )
        13           I   tau(  13) = (   0.7466233   0.4947286  -0.0482132  )
        14           I   tau(  14) = (   0.2766761   0.4900621   0.4645197  )
        15           I   tau(  15) = (   0.7805782  -0.0136153   0.4834771  )
        16           I   tau(  16) = (   0.7842693   0.4700264   0.5471042  )
        17           I   tau(  17) = (  -0.0274243   0.2373856   0.0043349  )
        18           I   tau(  18) = (   0.4805107   0.2355845   0.0109725  )
        19           I   tau(  19) = (  -0.0286745   0.7466082   0.0000297  )
        20           I   tau(  20) = (   0.0436152   0.2383911   0.5094159  )
        21           I   tau(  21) = (   0.4778862   0.7461083  -0.0009006  )
        22           I   tau(  22) = (   0.0194042   0.7481707   0.5178635  )
        23           I   tau(  23) = (   0.5331105   0.2356889   0.5133780  )
        24           I   tau(  24) = (   0.5516178   0.7462584   0.5208955  )
        25           I   tau(  25) = (   0.0330927  -0.0300633   0.2580415  )
        26           I   tau(  26) = (   0.4760178  -0.0331001   0.2600845  )
        27           I   tau(  27) = (  -0.0464824   0.4927443   0.2615471  )
        28           I   tau(  28) = (  -0.0372778  -0.0255315   0.7659515  )
        29           I   tau(  29) = (   0.5582481   0.4919323   0.2541280  )
        30           I   tau(  30) = (   0.0525284   0.4887103   0.7700317  )
        31           I   tau(  31) = (   0.5432334  -0.0260104   0.7689402  )
        32           I   tau(  32) = (   0.4604215   0.4818479   0.7626152  )
        33           C   tau(  33) = (   0.2448789   0.2593162   0.2602143  )
        34           C   tau(  34) = (   0.7678887   0.2605448   0.2761238  )
        35           C   tau(  35) = (   0.2519640   0.7586691   0.2843780  )
        36           C   tau(  36) = (   0.2625071   0.2547988   0.7474406  )
        37           C   tau(  37) = (   0.7632508   0.8085364   0.2582784  )
        38           C   tau(  38) = (   0.2573355   0.7938778   0.7568945  )
        39           C   tau(  39) = (   0.7554137   0.2627245   0.7661038  )
        40           C   tau(  40) = (   0.7652951   0.7628515   0.7493762  )
        41           N   tau(  41) = (   0.1988550   0.2088639   0.1808933  )
        42           N   tau(  42) = (   0.6944952   0.2257075   0.2100604  )
        43           N   tau(  43) = (   0.1634334   0.7042027   0.2722501  )
        44           N   tau(  44) = (   0.1922224   0.2374183   0.8229885  )
        45           N   tau(  45) = (   0.6715228   0.7591094   0.2483145  )
        46           N   tau(  46) = (   0.1732601   0.7532919   0.8042922  )
        47           N   tau(  47) = (   0.7128105   0.2123354   0.8472574  )
        48           N   tau(  48) = (   0.6942238   0.7478815   0.8246522  )
        49           N   tau(  49) = (   0.3174480   0.2179790   0.3232819  )
        50           N   tau(  50) = (   0.8568085   0.2100392   0.2984975  )
        51           N   tau(  51) = (   0.3462501   0.7256794   0.2535136  )
        52           N   tau(  52) = (   0.3463309   0.1948264   0.7292121  )
        53           N   tau(  53) = (   0.8571631   0.7629750   0.2640169  )
        54           N   tau(  54) = (   0.3373338   0.7382639   0.7188683  )
        55           N   tau(  55) = (   0.8178397   0.2194084   0.6942354  )
        56           N   tau(  56) = (   0.8477318   0.7005362   0.7326497  )
        57           H   tau(  57) = (   0.2216245   0.3418942   0.2749512  )
        58           H   tau(  58) = (   0.7543336   0.3371428   0.3152261  )
        59           H   tau(  59) = (   0.2469730   0.8366197   0.3230049  )
        60           H   tau(  60) = (   0.2504703   0.3245394   0.6968376  )
        61           H   tau(  61) = (   0.7614200   0.8953172   0.2623650  )
        62           H   tau(  62) = (   0.2601633   0.8802787   0.7475421  )
        63           H   tau(  63) = (   0.7376580   0.3474814   0.7573287  )
        64           H   tau(  64) = (   0.7559279   0.8321784   0.6975702  )
        65           H   tau(  65) = (   0.2166070   0.1320612   0.1610346  )
        66           H   tau(  66) = (   0.7030371   0.1563186   0.1674687  )
        67           H   tau(  67) = (   0.1617436   0.6312634   0.2361835  )
        68           H   tau(  68) = (   0.1980197   0.1737588   0.8738832  )
        69           H   tau(  69) = (   0.6624037   0.6778149   0.2461871  )
        70           H   tau(  70) = (   0.1597576   0.6730510   0.8107138  )
        71           H   tau(  71) = (   0.7242745   0.1331315   0.8616620  )
        72           H   tau(  72) = (   0.6982050   0.6842849   0.8759044  )
        73           H   tau(  73) = (   0.1416279   0.2451016   0.1353861  )
        74           H   tau(  74) = (   0.6284762   0.2710502   0.1958613  )
        75           H   tau(  75) = (   0.0958198   0.7301872   0.3090061  )
        76           H   tau(  76) = (   0.1292319   0.2881358   0.8313665  )
        77           H   tau(  77) = (   0.6043053   0.8047876   0.2462276  )
        78           H   tau(  78) = (   0.1147181   0.8020616   0.8322852  )
        79           H   tau(  79) = (   0.6637876   0.2519548   0.8987069  )
        80           H   tau(  80) = (   0.6317811   0.7994727   0.8319659  )
        81           H   tau(  81) = (   0.3451838   0.1417727   0.3152746  )
        82           H   tau(  82) = (   0.8760596   0.1375476   0.2672922  )
        83           H   tau(  83) = (   0.3578862   0.6536428   0.2174830  )
        84           H   tau(  84) = (   0.3639533   0.1291352   0.7737685  )
        85           H   tau(  85) = (   0.8696077   0.6822761   0.2602168  )
        86           H   tau(  86) = (   0.3447045   0.6573235   0.7282623  )
        87           H   tau(  87) = (   0.8410693   0.1412931   0.6968299  )
        88           H   tau(  88) = (   0.8616439   0.6338206   0.7768415  )
        89           H   tau(  89) = (   0.3500020   0.2622639   0.3833115  )
        90           H   tau(  90) = (   0.9098179   0.2402524   0.3525850  )
        91           H   tau(  91) = (   0.4087261   0.7774087   0.2584466  )
        92           H   tau(  92) = (   0.3982111   0.2141952   0.6690833  )
        93           H   tau(  93) = (   0.9226484   0.8112741   0.2685398  )
        94           H   tau(  94) = (   0.3980606   0.7753374   0.6792420  )
        95           H   tau(  95) = (   0.8458983   0.2661287   0.6338134  )
        96           H   tau(  96) = (   0.8998008   0.7168442   0.6718690  )

     number of k points=    32
                       cart. coord. in units 2pi/alat
        k(    1) = (   0.1234117   0.1224657   0.1231090), wk =   0.0625000
        k(    2) = (   0.1234117   0.1224657   0.3693271), wk =   0.0625000
        k(    3) = (   0.1234117   0.3673972   0.1231090), wk =   0.0625000
        k(    4) = (   0.1234117   0.3673972   0.3693271), wk =   0.0625000
        k(    5) = (   0.3702352   0.1224657   0.1231090), wk =   0.0625000
        k(    6) = (   0.3702352   0.1224657   0.3693271), wk =   0.0625000
        k(    7) = (   0.3702352   0.3673972   0.1231090), wk =   0.0625000
        k(    8) = (   0.3702352   0.3673972   0.3693271), wk =   0.0625000
        k(    9) = (  -0.1234117  -0.1224657   0.1231090), wk =   0.0625000
        k(   10) = (  -0.1234117   0.1224657  -0.1231090), wk =   0.0625000
        k(   11) = (   0.1234117  -0.1224657  -0.1231090), wk =   0.0625000
        k(   12) = (  -0.1234117  -0.1224657   0.3693271), wk =   0.0625000
        k(   13) = (  -0.1234117   0.1224657  -0.3693271), wk =   0.0625000
        k(   14) = (   0.1234117  -0.1224657  -0.3693271), wk =   0.0625000
        k(   15) = (  -0.1234117  -0.3673972   0.1231090), wk =   0.0625000
        k(   16) = (  -0.1234117   0.3673972  -0.1231090), wk =   0.0625000
        k(   17) = (   0.1234117  -0.3673972  -0.1231090), wk =   0.0625000
        k(   18) = (  -0.1234117  -0.3673972   0.3693271), wk =   0.0625000
        k(   19) = (  -0.1234117   0.3673972  -0.3693271), wk =   0.0625000
        k(   20) = (   0.1234117  -0.3673972  -0.3693271), wk =   0.0625000
        k(   21) = (  -0.3702352  -0.1224657   0.1231090), wk =   0.0625000
        k(   22) = (  -0.3702352   0.1224657  -0.1231090), wk =   0.0625000
        k(   23) = (   0.3702352  -0.1224657  -0.1231090), wk =   0.0625000
        k(   24) = (  -0.3702352  -0.1224657   0.3693271), wk =   0.0625000
        k(   25) = (  -0.3702352   0.1224657  -0.3693271), wk =   0.0625000
        k(   26) = (   0.3702352  -0.1224657  -0.3693271), wk =   0.0625000
        k(   27) = (  -0.3702352  -0.3673972   0.1231090), wk =   0.0625000
        k(   28) = (  -0.3702352   0.3673972  -0.1231090), wk =   0.0625000
        k(   29) = (   0.3702352  -0.3673972  -0.1231090), wk =   0.0625000
        k(   30) = (  -0.3702352  -0.3673972   0.3693271), wk =   0.0625000
        k(   31) = (  -0.3702352   0.3673972  -0.3693271), wk =   0.0625000
        k(   32) = (   0.3702352  -0.3673972  -0.3693271), wk =   0.0625000

     Dense  grid:  2487985 G-vectors     FFT dimensions: ( 180, 180, 180)

     Estimated max dynamical RAM per process >       1.82 GB

     Estimated total dynamical RAM >      58.28 GB

     Initial potential from superposition of free atoms

     starting charge  431.97851, renormalised to  432.00000
     Starting wfcs are  304 randomized atomic wfcs
     Checking if some PAW data can be deallocated... 

     total cpu time spent up to now is      998.3 secs

     Self-consistent Calculation

     iteration #  1     ecut=   120.00 Ry     beta= 0.70
     Davidson diagonalization with overlap
     ethr =  1.00E-02,  avg # of iterations =  2.0

     total cpu time spent up to now is     3053.6 secs

     total energy              =  -16705.00505741 Ry
     Harris-Foulkes estimate   =  -16709.27838290 Ry
     estimated scf accuracy    <       6.76693218 Ry

     iteration #  2     ecut=   120.00 Ry     beta= 0.70
     Davidson diagonalization with overlap
     ethr =  1.57E-03,  avg # of iterations =  4.0

     total cpu time spent up to now is     5727.6 secs

     total energy              =  -16706.54340858 Ry
     Harris-Foulkes estimate   =  -16708.63297855 Ry
     estimated scf accuracy    <       3.89473107 Ry

     iteration #  3     ecut=   120.00 Ry     beta= 0.70
     Davidson diagonalization with overlap
     ethr =  9.02E-04,  avg # of iterations =  3.0

     total cpu time spent up to now is     7810.0 secs

     total energy              =  -16707.40714790 Ry
     Harris-Foulkes estimate   =  -16707.47481821 Ry
     estimated scf accuracy    <       0.14688240 Ry

     iteration #  4     ecut=   120.00 Ry     beta= 0.70
     Davidson diagonalization with overlap
     ethr =  3.40E-05,  avg # of iterations =  4.0

     total cpu time spent up to now is    10688.2 secs

     total energy              =  -16707.45084799 Ry
     Harris-Foulkes estimate   =  -16707.47049903 Ry
     estimated scf accuracy    <       0.03916941 Ry

     iteration #  5     ecut=   120.00 Ry     beta= 0.70
     Davidson diagonalization with overlap
     ethr =  9.07E-06,  avg # of iterations =  3.0

     total cpu time spent up to now is    12949.7 secs

     total energy              =  -16707.45825060 Ry
     Harris-Foulkes estimate   =  -16707.45954462 Ry
     estimated scf accuracy    <       0.00238786 Ry

     iteration #  6     ecut=   120.00 Ry     beta= 0.70
     Davidson diagonalization with overlap
     ethr =  5.53E-07,  avg # of iterations =  4.0

     total cpu time spent up to now is    15820.6 secs

     total energy              =  -16707.45891641 Ry
     Harris-Foulkes estimate   =  -16707.45951080 Ry
     estimated scf accuracy    <       0.00133474 Ry

     iteration #  7     ecut=   120.00 Ry     beta= 0.70
     Davidson diagonalization with overlap
     ethr =  3.09E-07,  avg # of iterations =  3.8

     total cpu time spent up to now is    17998.3 secs

     total energy              =  -16707.45919809 Ry
     Harris-Foulkes estimate   =  -16707.45923399 Ry
     estimated scf accuracy    <       0.00008168 Ry

     iteration #  8     ecut=   120.00 Ry     beta= 0.70
     Davidson diagonalization with overlap
     ethr =  1.89E-08,  avg # of iterations =  4.0

     total cpu time spent up to now is    20661.1 secs

     total energy              =  -16707.45922156 Ry
     Harris-Foulkes estimate   =  -16707.45923065 Ry
     estimated scf accuracy    <       0.00001952 Ry

     iteration #  9     ecut=   120.00 Ry     beta= 0.70
     Davidson diagonalization with overlap
     ethr =  4.52E-09,  avg # of iterations =  3.0

     total cpu time spent up to now is    22969.3 secs

     total energy              =  -16707.45922580 Ry
     Harris-Foulkes estimate   =  -16707.45922676 Ry
     estimated scf accuracy    <       0.00000201 Ry

     iteration # 10     ecut=   120.00 Ry     beta= 0.70
     Davidson diagonalization with overlap
     ethr =  4.65E-10,  avg # of iterations =  4.0

     total cpu time spent up to now is    25435.0 secs

     total energy              =  -16707.45922631 Ry
     Harris-Foulkes estimate   =  -16707.45922646 Ry
     estimated scf accuracy    <       0.00000034 Ry

     iteration # 11     ecut=   120.00 Ry     beta= 0.70
     Davidson diagonalization with overlap
     ethr =  7.87E-11,  avg # of iterations =  4.0

     total cpu time spent up to now is    27853.5 secs

     End of self-consistent calculation

          k = 0.1234 0.1225 0.1231 (310993 PWs)   bands (ev):

   -18.0114 -17.9306 -17.8951 -17.8908 -17.8639 -17.8533 -17.8417 -17.8116
   -15.7868 -15.7120 -15.7034 -15.6914 -15.6710 -15.6309 -15.6135 -15.5636
   -14.3491 -14.3332 -14.3132 -14.3116 -14.3019 -14.3018 -14.2977 -14.2959
   -14.2935 -14.2848 -14.2787 -14.2774 -14.2732 -14.2698 -14.2687 -14.2680
   -14.2662 -14.2589 -14.2588 -14.2581 -14.2555 -14.2523 -14.2520 -14.2482
   -14.2466 -14.2424 -14.2420 -14.2394 -14.2354 -14.2352 -14.2346 -14.2340
   -14.2319 -14.2246 -14.2213 -14.2201 -14.2171 -14.2099 -14.2063 -14.2029
    -9.8518  -9.8014  -9.7583  -9.7076  -9.6835  -9.6572  -9.6501  -9.6093
    -9.5422  -9.4900  -9.4384  -9.3915  -9.3789  -9.3247  -9.2918  -9.2588
    -9.2436  -9.2234  -9.1818  -9.1602  -9.1278  -9.1008  -9.0837  -9.0624
    -9.0476  -9.0361  -9.0169  -9.0084  -8.9760  -8.9405  -8.8991  -8.8767
    -7.8542  -7.7180  -7.7080  -7.7007  -7.6845  -7.6694  -7.6469  -7.6323
    -7.1431  -7.1388  -7.0964  -7.0898  -7.0692  -7.0282  -7.0067  -6.9438
    -5.8939  -5.5703  -5.4827  -5.4544  -5.4108  -5.3933  -5.3685  -5.3592
    -5.3269  -5.3217  -5.3123  -5.2827  -5.0620  -5.0027  -4.9918  -4.6078
    -3.9507  -3.8594  -3.8511  -3.8228  -3.8194  -3.8068  -3.8006  -3.7727
    -3.3502  -3.3381  -3.3037  -3.2945  -3.2877  -3.2584  -3.2485  -3.2110
    -0.9020  -0.8775  -0.8319  -0.7849  -0.7418  -0.7227  -0.7050  -0.6680
    -0.6261  -0.6130  -0.5411  -0.4938  -0.2301  -0.1894  -0.1549  -0.1367
    -0.1043  -0.0922  -0.0366   0.0019   0.2950   0.3865   0.4357   0.4720
     0.4828   0.5005   0.5211   0.5520   0.5700   0.6314   0.6625   0.7262
     0.7506   0.8027   0.8334   0.8442   0.8592   0.8967   0.9301   0.9558
     0.9798   1.0004   1.0069   1.0264   1.0502   1.0676   1.0754   1.0900
     1.1069   1.1267   1.1421   1.1584   1.1861   1.1942   1.2185   1.2287
     1.2511   1.2662   1.2832   1.2992   1.3256   1.3449   1.3619   1.3866
     1.4054   1.4339   1.4453   1.4642   1.4969   1.5086   1.5621   1.5931
     1.6305   1.6805   1.6960   1.7485   1.7857   1.8167   1.8457   2.0855

          k = 0.1234 0.1225 0.3693 (310949 PWs)   bands (ev):

   -18.0114 -17.9306 -17.8950 -17.8909 -17.8639 -17.8533 -17.8417 -17.8116
   -15.7868 -15.7119 -15.7034 -15.6912 -15.6711 -15.6309 -15.6136 -15.5636
   -14.3488 -14.3331 -14.3129 -14.3116 -14.3019 -14.3015 -14.2980 -14.2959
   -14.2933 -14.2850 -14.2787 -14.2774 -14.2728 -14.2698 -14.2690 -14.2687
   -14.2662 -14.2589 -14.2588 -14.2581 -14.2551 -14.2523 -14.2520 -14.2477
   -14.2466 -14.2428 -14.2424 -14.2394 -14.2354 -14.2352 -14.2346 -14.2343
   -14.2319 -14.2246 -14.2213 -14.2201 -14.2171 -14.2099 -14.2063 -14.2029
    -9.8323  -9.7940  -9.7540  -9.7149  -9.7089  -9.6646  -9.6561  -9.6150
    -9.5373  -9.4782  -9.4402  -9.4067  -9.3670  -9.3135  -9.3068  -9.2953
    -9.2379  -9.2159  -9.1703  -9.1406  -9.1151  -9.0939  -9.0742  -9.0601
    -9.0479  -9.0327  -9.0213  -9.0016  -8.9863  -8.9566  -8.9036  -8.8774
    -7.8542  -7.7167  -7.7052  -7.7004  -7.6882  -7.6703  -7.6476  -7.6324
    -7.1431  -7.1388  -7.0964  -7.0890  -7.0698  -7.0283  -7.0066  -6.9438
    -5.7841  -5.6186  -5.5576  -5.3982  -5.3729  -5.3669  -5.3627  -5.3317
    -5.3234  -5.3124  -5.2899  -5.2776  -5.1851  -5.1208  -4.9002  -4.7341
    -3.9503  -3.8567  -3.8479  -3.8257  -3.8193  -3.8090  -3.8023  -3.7725
    -3.3501  -3.3380  -3.3007  -3.2970  -3.2873  -3.2586  -3.2490  -3.2111
    -0.8637  -0.8222  -0.7533  -0.7455  -0.7078  -0.6526  -0.6125  -0.5750
    -0.4717  -0.4264  -0.3116  -0.2520  -0.2007  -0.1731  -0.1491  -0.1409
    -0.1049  -0.0676  -0.0386   0.0026   0.1201   0.2208   0.2745   0.3425
     0.3874   0.3986   0.4450   0.4859   0.5104   0.5318   0.5529   0.5860
     0.6278   0.6871   0.8269   0.8481   0.8711   0.8930   0.9094   0.9292
     0.9578   0.9661   0.9796   1.0067   1.0392   1.0498   1.0680   1.1152
     1.1387   1.1446   1.1618   1.1657   1.2030   1.2148   1.2308   1.2457
     1.2642   1.2813   1.2998   1.3152   1.3349   1.3534   1.3616   1.3785
     1.4056   1.4251   1.4321   1.4673   1.4902   1.5026   1.5184   1.5375
     1.5762   1.6485   1.6650   1.6855   1.7294   1.7509   1.8423   1.9449

          k = 0.1234 0.3674 0.1231 (310955 PWs)   bands (ev):

   -18.0114 -17.9306 -17.8951 -17.8908 -17.8639 -17.8533 -17.8417 -17.8116
   -15.7868 -15.7120 -15.7034 -15.6914 -15.6710 -15.6309 -15.6135 -15.5636
   -14.3491 -14.3330 -14.3132 -14.3116 -14.3019 -14.3014 -14.2976 -14.2959
   -14.2922 -14.2856 -14.2784 -14.2774 -14.2734 -14.2700 -14.2688 -14.2681
   -14.2662 -14.2591 -14.2588 -14.2581 -14.2557 -14.2523 -14.2520 -14.2483
   -14.2466 -14.2424 -14.2424 -14.2394 -14.2354 -14.2352 -14.2346 -14.2340
   -14.2319 -14.2246 -14.2213 -14.2201 -14.2171 -14.2099 -14.2063 -14.2029
    -9.8494  -9.8027  -9.7571  -9.7073  -9.6844  -9.6576  -9.6471  -9.6117
    -9.5410  -9.4701  -9.4287  -9.4053  -9.3747  -9.3518  -9.3076  -9.2936
    -9.2486  -9.2227  -9.1729  -9.1507  -9.1153  -9.0835  -9.0825  -9.0598
    -9.0370  -9.0255  -9.0102  -8.9993  -8.9721  -8.9450  -8.9155  -8.8918
    -7.8530  -7.7186  -7.7073  -7.6987  -7.6859  -7.6662  -7.6499  -7.6331
    -7.1426  -7.1390  -7.0966  -7.0894  -7.0694  -7.0276  -7.0073  -6.9440
    -5.7786  -5.5744  -5.5496  -5.4038  -5.3826  -5.3738  -5.3502  -5.3434
    -5.3220  -5.3183  -5.3093  -5.2774  -5.1505  -5.1307  -4.9409  -4.7563
    -3.9488  -3.8603  -3.8536  -3.8198  -3.8175  -3.8095  -3.8005  -3.7730
    -3.3508  -3.3373  -3.3032  -3.2946  -3.2880  -3.2578  -3.2499  -3.2111
    -0.8946  -0.8702  -0.7617  -0.7127  -0.6827  -0.6623  -0.5815  -0.5318
    -0.3960  -0.3512  -0.3018  -0.2257  -0.1982  -0.1734  -0.1439  -0.1313
    -0.1071  -0.0937  -0.0388  -0.0035   0.1911   0.2441   0.3017   0.3186
     0.3925   0.4562   0.4739   0.4850   0.5157   0.5332   0.5522   0.6146
     0.6328   0.7122   0.7292   0.7477   0.7831   0.8619   0.8842   0.9048
     0.9383   0.9562   0.9959   1.0145   1.0488   1.0555   1.0736   1.1022
     1.1106   1.1311   1.1638   1.1766   1.1892   1.2091   1.2327   1.2385
     1.2621   1.2845   1.3012   1.3114   1.3404   1.3500   1.3756   1.4004
     1.4205   1.4387   1.4457   1.4620   1.4782   1.4887   1.5292   1.5363
     1.5691   1.6010   1.6245   1.6387   1.6876   1.7027   1.8169   1.8881

          k = 0.1234 0.3674 0.3693 (310965 PWs)   bands (ev):

   -18.0114 -17.9306 -17.8950 -17.8909 -17.8639 -17.8533 -17.8417 -17.8116
   -15.7868 -15.7119 -15.7034 -15.6912 -15.6711 -15.6309 -15.6136 -15.5636
   -14.3488 -14.3329 -14.3129 -14.3116 -14.3019 -14.3011 -14.2979 -14.2959
   -14.2919 -14.2860 -14.2785 -14.2774 -14.2729 -14.2700 -14.2692 -14.2687
   -14.2662 -14.2591 -14.2588 -14.2581 -14.2553 -14.2523 -14.2520 -14.2477
   -14.2466 -14.2431 -14.2424 -14.2394 -14.2354 -14.2352 -14.2346 -14.2343
   -14.2319 -14.2246 -14.2213 -14.2201 -14.2171 -14.2099 -14.2063 -14.2029
    -9.8319  -9.7925  -9.7524  -9.7145  -9.7090  -9.6630  -9.6566  -9.6162
    -9.5384  -9.4616  -9.4293  -9.4065  -9.3876  -9.3357  -9.3250  -9.2973
    -9.2461  -9.2095  -9.1635  -9.1456  -9.1248  -9.0803  -9.0697  -9.0500
    -9.0323  -9.0276  -9.0092  -9.0024  -8.9812  -8.9463  -8.9172  -8.8985
    -7.8529  -7.7170  -7.7040  -7.6986  -7.6898  -7.6677  -7.6503  -7.6331
    -7.1426  -7.1390  -7.0966  -7.0889  -7.0700  -7.0277  -7.0073  -6.9439
    -5.6740  -5.5756  -5.4976  -5.4423  -5.3972  -5.3718  -5.3575  -5.3460
    -5.3230  -5.3183  -5.2932  -5.2417  -5.2302  -5.0680  -5.0397  -4.8795
    -3.9484  -3.8588  -3.8501  -3.8230  -3.8162  -3.8119  -3.8012  -3.7729
    -3.3507  -3.3372  -3.3006  -3.2972  -3.2873  -3.2579  -3.2505  -3.2113
    -0.8529  -0.7524  -0.6432  -0.6014  -0.5150  -0.4650  -0.3693  -0.3605
    -0.3127  -0.3016  -0.2655  -0.2538  -0.1974  -0.1627  -0.1406  -0.1169
    -0.1089  -0.0699  -0.0429   0.0053   0.0961   0.1974   0.2155   0.2487
     0.2821   0.3164   0.3427   0.3575   0.4091   0.4842   0.5398   0.5579
     0.6097   0.6478   0.6945   0.7475   0.7611   0.8064   0.8169   0.8373
     0.8631   0.8990   0.9309   0.9461   0.9875   1.0104   1.0453   1.0853
     1.1197   1.1456   1.1582   1.1710   1.2007   1.2199   1.2382   1.2661
     1.2890   1.3059   1.3244   1.3340   1.3450   1.3679   1.3869   1.3991
     1.4038   1.4209   1.4514   1.4639   1.4701   1.4861   1.4906   1.5290
     1.5549   1.5698   1.5837   1.6287   1.6531   1.6764   1.6984   1.7738

          k = 0.3702 0.1225 0.1231 (310968 PWs)   bands (ev):

   -18.0113 -17.9306 -17.8951 -17.8908 -17.8640 -17.8533 -17.8416 -17.8117
   -15.7852 -15.7119 -15.7050 -15.6913 -15.6710 -15.6308 -15.6135 -15.5637
   -14.3488 -14.3328 -14.3137 -14.3116 -14.3019 -14.3018 -14.2976 -14.2959
   -14.2935 -14.2848 -14.2774 -14.2765 -14.2735 -14.2714 -14.2687 -14.2679
   -14.2662 -14.2588 -14.2581 -14.2579 -14.2556 -14.2523 -14.2520 -14.2492
   -14.2466 -14.2424 -14.2421 -14.2394 -14.2353 -14.2352 -14.2346 -14.2343
   -14.2319 -14.2246 -14.2213 -14.2201 -14.2171 -14.2099 -14.2063 -14.2029
    -9.8288  -9.7813  -9.7703  -9.7062  -9.6952  -9.6789  -9.6572  -9.6171
    -9.5477  -9.4934  -9.4245  -9.3875  -9.3647  -9.3429  -9.3086  -9.2596
    -9.2374  -9.2167  -9.1764  -9.1712  -9.1311  -9.1005  -9.0888  -9.0617
    -9.0344  -9.0242  -9.0028  -8.9796  -8.9634  -8.9465  -8.9190  -8.9031
    -7.8517  -7.7178  -7.7114  -7.7034  -7.6857  -7.6703  -7.6476  -7.6325
    -7.1428  -7.1378  -7.0949  -7.0897  -7.0690  -7.0280  -7.0065  -6.9439
    -5.7754  -5.5961  -5.5318  -5.4028  -5.3793  -5.3691  -5.3634  -5.3480
    -5.3287  -5.3128  -5.2890  -5.2801  -5.1923  -5.1257  -4.9053  -4.7421
    -3.9499  -3.8585  -3.8518  -3.8230  -3.8191  -3.8062  -3.8027  -3.7729
    -3.3501  -3.3363  -3.3033  -3.2951  -3.2873  -3.2597  -3.2465  -3.2146
    -0.8857  -0.8192  -0.7945  -0.7649  -0.7059  -0.6638  -0.6479  -0.5819
    -0.4540  -0.3520  -0.2929  -0.2507  -0.1838  -0.1737  -0.1490  -0.1068
    -0.0966  -0.0523  -0.0328  -0.0051   0.1222   0.2406   0.2992   0.3598
     0.4015   0.4296   0.4525   0.5051   0.5187   0.5385   0.5673   0.6325
     0.6545   0.7217   0.7759   0.8042   0.8153   0.8528   0.8826   0.9110
     0.9497   0.9735   0.9876   1.0174   1.0339   1.0464   1.0704   1.0966
     1.1169   1.1337   1.1456   1.1658   1.1928   1.2131   1.2268   1.2455
     1.2642   1.2896   1.3050   1.3276   1.3426   1.3537   1.3839   1.4007
     1.4247   1.4370   1.4564   1.4644   1.4844   1.5074   1.5448   1.5744
     1.5909   1.6027   1.6128   1.6479   1.6892   1.7226   1.8133   1.8925

          k = 0.3702 0.1225 0.3693 (310988 PWs)   bands (ev):

   -18.0113 -17.9306 -17.8950 -17.8909 -17.8640 -17.8533 -17.8416 -17.8117
   -15.7852 -15.7119 -15.7050 -15.6912 -15.6712 -15.6308 -15.6136 -15.5637
   -14.3486 -14.3327 -14.3134 -14.3116 -14.3019 -14.3015 -14.2979 -14.2959
   -14.2933 -14.2850 -14.2774 -14.2765 -14.2733 -14.2712 -14.2689 -14.2687
   -14.2662 -14.2588 -14.2581 -14.2579 -14.2552 -14.2523 -14.2520 -14.2486
   -14.2466 -14.2428 -14.2424 -14.2394 -14.2353 -14.2352 -14.2347 -14.2346
   -14.2319 -14.2246 -14.2213 -14.2201 -14.2171 -14.2099 -14.2063 -14.2029
    -9.8129  -9.7781  -9.7550  -9.7117  -9.7054  -9.6892  -9.6749  -9.6227
    -9.5346  -9.4787  -9.4512  -9.4130  -9.3560  -9.3277  -9.3108  -9.2921
    -9.2237  -9.2169  -9.1731  -9.1377  -9.1191  -9.0904  -9.0806  -9.0658
    -9.0451  -9.0117  -9.0027  -8.9826  -8.9704  -8.9560  -8.9252  -8.9046
    -7.8520  -7.7168  -7.7097  -7.7013  -7.6891  -7.6719  -7.6484  -7.6324
    -7.1428  -7.1377  -7.0949  -7.0889  -7.0696  -7.0281  -7.0065  -6.9439
    -5.6686  -5.5397  -5.5005  -5.4827  -5.3981  -5.3725  -5.3651  -5.3547
    -5.3270  -5.3188  -5.3077  -5.2822  -5.1917  -5.0380  -5.0215  -4.8673
    -3.9495  -3.8564  -3.8477  -3.8241  -3.8208  -3.8093  -3.8035  -3.7726
    -3.3501  -3.3362  -3.3013  -3.2965  -3.2874  -3.2597  -3.2464  -3.2145
    -0.8012  -0.7629  -0.7213  -0.6827  -0.5360  -0.4960  -0.4227  -0.3851
    -0.3433  -0.3018  -0.2618  -0.2056  -0.1826  -0.1760  -0.1347  -0.1038
    -0.0901  -0.0739  -0.0367  -0.0102   0.0884   0.1938   0.2126   0.2571
     0.2908   0.3048   0.3513   0.3991   0.4268   0.4677   0.5128   0.5301
     0.6554   0.7054   0.7299   0.7626   0.7758   0.8085   0.8228   0.8350
     0.8946   0.9159   0.9415   0.9578   0.9787   1.0235   1.0441   1.0760
     1.1037   1.1474   1.1650   1.1791   1.2108   1.2213   1.2356   1.2656
     1.2815   1.3063   1.3109   1.3352   1.3535   1.3623   1.3741   1.3957
     1.4194   1.4251   1.4478   1.4622   1.4737   1.4905   1.5092   1.5365
     1.5525   1.5646   1.6014   1.6414   1.6641   1.7187   1.7318   1.7696

          k = 0.3702 0.3674 0.1231 (310979 PWs)   bands (ev):

   -18.0113 -17.9306 -17.8951 -17.8908 -17.8640 -17.8533 -17.8416 -17.8117
   -15.7852 -15.7119 -15.7050 -15.6913 -15.6710 -15.6308 -15.6135 -15.5637
   -14.3488 -14.3326 -14.3137 -14.3116 -14.3019 -14.3014 -14.2975 -14.2959
   -14.2922 -14.2856 -14.2774 -14.2762 -14.2733 -14.2721 -14.2688 -14.2680
   -14.2662 -14.2588 -14.2581 -14.2581 -14.2558 -14.2523 -14.2520 -14.2492
   -14.2466 -14.2425 -14.2424 -14.2394 -14.2353 -14.2352 -14.2346 -14.2344
   -14.2319 -14.2246 -14.2213 -14.2201 -14.2171 -14.2099 -14.2063 -14.2029
    -9.8285  -9.7772  -9.7724  -9.7055  -9.6943  -9.6796  -9.6561  -9.6153
    -9.5471  -9.4816  -9.4203  -9.3992  -9.3694  -9.3569  -9.3099  -9.2895
    -9.2418  -9.2144  -9.1903  -9.1516  -9.1272  -9.0931  -9.0754  -9.0557
    -9.0260  -9.0000  -8.9919  -8.9794  -8.9706  -8.9550  -8.9306  -8.9159
    -7.8507  -7.7181  -7.7097  -7.7029  -7.6868  -7.6668  -7.6505  -7.6333
    -7.1424  -7.1381  -7.0949  -7.0893  -7.0694  -7.0272  -7.0074  -6.9439
    -5.6632  -5.5337  -5.4911  -5.4485  -5.3962  -5.3712  -5.3599  -5.3561
    -5.3252  -5.3144  -5.2881  -5.2605  -5.2402  -5.0847  -5.0410  -4.8873
    -3.9482  -3.8582  -3.8545  -3.8202  -3.8182  -3.8080  -3.8024  -3.7731
    -3.3507  -3.3354  -3.3031  -3.2952  -3.2876  -3.2594  -3.2473  -3.2147
    -0.8776  -0.7799  -0.6855  -0.5976  -0.5353  -0.4423  -0.3844  -0.3564
    -0.3272  -0.2773  -0.2430  -0.2089  -0.1688  -0.1542  -0.1277  -0.1116
    -0.0911  -0.0500  -0.0383  -0.0117   0.0579   0.2046   0.2264   0.2417
     0.3210   0.3455   0.3833   0.4257   0.4487   0.4617   0.5044   0.5313
     0.5781   0.6432   0.6902   0.7278   0.7679   0.8086   0.8491   0.8822
     0.9134   0.9259   0.9452   0.9754   0.9951   1.0299   1.0617   1.0819
     1.0983   1.1118   1.1322   1.1413   1.1699   1.1968   1.2173   1.2415
     1.2578   1.2733   1.2915   1.3109   1.3427   1.3529   1.3846   1.3932
     1.4124   1.4433   1.4539   1.4768   1.4985   1.5106   1.5214   1.5372
     1.5577   1.5762   1.5811   1.5995   1.6184   1.6441   1.6676   1.7020

          k = 0.3702 0.3674 0.3693 (311031 PWs)   bands (ev):

   -18.0113 -17.9306 -17.8950 -17.8909 -17.8640 -17.8533 -17.8416 -17.8117
   -15.7852 -15.7119 -15.7050 -15.6912 -15.6712 -15.6308 -15.6136 -15.5637
   -14.3486 -14.3326 -14.3134 -14.3116 -14.3019 -14.3011 -14.2978 -14.2959
   -14.2919 -14.2860 -14.2774 -14.2762 -14.2729 -14.2720 -14.2691 -14.2687
   -14.2662 -14.2588 -14.2581 -14.2581 -14.2554 -14.2523 -14.2520 -14.2487
   -14.2466 -14.2432 -14.2424 -14.2394 -14.2353 -14.2352 -14.2347 -14.2346
   -14.2319 -14.2246 -14.2213 -14.2201 -14.2171 -14.2099 -14.2063 -14.2029
    -9.8141  -9.7714  -9.7587  -9.7126  -9.7027  -9.6902  -9.6738  -9.6189
    -9.5385  -9.4617  -9.4424  -9.4066  -9.3908  -9.3438  -9.3299  -9.2884
    -9.2420  -9.1993  -9.1607  -9.1517  -9.1272  -9.0832  -9.0671  -9.0498
    -9.0303  -9.0010  -8.9936  -8.9809  -8.9732  -8.9607  -8.9355  -8.9200
    -7.8509  -7.7166  -7.7081  -7.7006  -7.6910  -7.6688  -7.6509  -7.6331
    -7.1424  -7.1380  -7.0948  -7.0888  -7.0699  -7.0273  -7.0074  -6.9439
    -5.5628  -5.5337  -5.4091  -5.3977  -5.3879  -5.3691  -5.3599  -5.3509
    -5.3346  -5.3157  -5.3065  -5.2822  -5.2123  -5.1684  -5.1548  -5.0086
    -3.9479  -3.8566  -3.8512  -3.8222  -3.8180  -3.8102  -3.8031  -3.7729
    -3.3508  -3.3354  -3.3015  -3.2966  -3.2874  -3.2595  -3.2472  -3.2147
    -0.5817  -0.5160  -0.4941  -0.4268  -0.3961  -0.3511  -0.3461  -0.3405
    -0.3013  -0.2694  -0.2456  -0.2018  -0.1676  -0.1623  -0.1249  -0.1048
    -0.0826  -0.0605  -0.0385  -0.0210   0.0508   0.1562   0.1779   0.2036
     0.2385   0.2627   0.2781   0.3003   0.3373   0.3695   0.4154   0.4666
     0.6254   0.6766   0.6940   0.7364   0.7667   0.7802   0.8042   0.8354
     0.8521   0.8823   0.8966   0.9126   0.9382   0.9766   0.9875   1.0086
     1.0572   1.0658   1.0681   1.1002   1.1211   1.1387   1.1725   1.1931
     1.2669   1.2972   1.3111   1.3223   1.3524   1.3746   1.3890   1.4088
     1.4128   1.4302   1.4449   1.4618   1.4828   1.5012   1.5043   1.5212
     1.5338   1.5513   1.5623   1.5796   1.6017   1.6282   1.6529   1.6664

          k =-0.1234-0.1225 0.1231 (310993 PWs)   bands (ev):

   -18.0114 -17.9306 -17.8951 -17.8908 -17.8639 -17.8533 -17.8417 -17.8116
   -15.7868 -15.7120 -15.7034 -15.6914 -15.6710 -15.6309 -15.6135 -15.5636
   -14.3491 -14.3332 -14.3132 -14.3116 -14.3019 -14.3018 -14.2977 -14.2959
   -14.2935 -14.2848 -14.2787 -14.2774 -14.2732 -14.2698 -14.2687 -14.2680
   -14.2662 -14.2589 -14.2588 -14.2581 -14.2555 -14.2523 -14.2520 -14.2482
   -14.2466 -14.2424 -14.2420 -14.2394 -14.2354 -14.2352 -14.2346 -14.2340
   -14.2319 -14.2246 -14.2213 -14.2201 -14.2171 -14.2099 -14.2063 -14.2029
    -9.8514  -9.8006  -9.7572  -9.7086  -9.6847  -9.6587  -9.6497  -9.6109
    -9.5450  -9.4883  -9.4297  -9.3975  -9.3746  -9.3288  -9.2933  -9.2573
    -9.2356  -9.2243  -9.1826  -9.1675  -9.1281  -9.1032  -9.0812  -9.0579
    -9.0513  -9.0362  -9.0154  -9.0096  -8.9770  -8.9392  -8.8989  -8.8764
    -7.8541  -7.7180  -7.7080  -7.7010  -7.6842  -7.6696  -7.6469  -7.6324
    -7.1431  -7.1389  -7.0963  -7.0898  -7.0692  -7.0282  -7.0067  -6.9438
    -5.8938  -5.5690  -5.4839  -5.4551  -5.4106  -5.3969  -5.3671  -5.3615
    -5.3257  -5.3201  -5.3116  -5.2808  -5.0618  -5.0036  -4.9916  -4.6081
    -3.9507  -3.8595  -3.8511  -3.8229  -3.8192  -3.8066  -3.8010  -3.7727
    -3.3503  -3.3381  -3.3038  -3.2945  -3.2878  -3.2585  -3.2483  -3.2110
    -0.9086  -0.8734  -0.8310  -0.7842  -0.7488  -0.7211  -0.7003  -0.6674
    -0.6249  -0.6109  -0.5439  -0.4913  -0.2249  -0.1869  -0.1582  -0.1361
    -0.1078  -0.0929  -0.0366   0.0036   0.2953   0.3935   0.4374   0.4660
     0.4876   0.4943   0.5113   0.5603   0.5686   0.6292   0.6567   0.7324
     0.7414   0.7993   0.8167   0.8404   0.8549   0.9123   0.9300   0.9443
     0.9793   0.9978   1.0128   1.0344   1.0544   1.0767   1.0838   1.0989
     1.1178   1.1258   1.1384   1.1682   1.1782   1.1916   1.2037   1.2309
     1.2518   1.2579   1.2878   1.3062   1.3195   1.3474   1.3616   1.3908
     1.3959   1.4340   1.4424   1.4725   1.4933   1.5136   1.5668   1.5896
     1.6296   1.6798   1.6966   1.7482   1.7835   1.8181   1.8450   2.0848

          k =-0.1234 0.1225-0.1231 (310993 PWs)   bands (ev):

   -18.0114 -17.9306 -17.8951 -17.8908 -17.8639 -17.8533 -17.8417 -17.8116
   -15.7868 -15.7120 -15.7034 -15.6914 -15.6710 -15.6309 -15.6135 -15.5636
   -14.3491 -14.3332 -14.3132 -14.3116 -14.3019 -14.3018 -14.2977 -14.2959
   -14.2935 -14.2848 -14.2787 -14.2774 -14.2732 -14.2698 -14.2687 -14.2680
   -14.2662 -14.2589 -14.2588 -14.2581 -14.2555 -14.2523 -14.2520 -14.2482
   -14.2466 -14.2424 -14.2420 -14.2394 -14.2354 -14.2352 -14.2346 -14.2340
   -14.2319 -14.2246 -14.2213 -14.2201 -14.2171 -14.2099 -14.2063 -14.2029
    -9.8520  -9.8014  -9.7580  -9.7077  -9.6843  -9.6562  -9.6492  -9.6105
    -9.5419  -9.4892  -9.4392  -9.3966  -9.3767  -9.3228  -9.2913  -9.2627
    -9.2346  -9.2196  -9.1851  -9.1674  -9.1300  -9.1016  -9.0809  -9.0597
    -9.0456  -9.0375  -9.0193  -9.0097  -8.9744  -8.9402  -8.8983  -8.8771
    -7.8542  -7.7178  -7.7085  -7.7007  -7.6840  -7.6698  -7.6469  -7.6323
    -7.1431  -7.1388  -7.0964  -7.0898  -7.0692  -7.0283  -7.0065  -6.9439
    -5.8940  -5.5693  -5.4841  -5.4572  -5.4123  -5.3915  -5.3675  -5.3598
    -5.3271  -5.3210  -5.3108  -5.2807  -5.0625  -5.0027  -4.9922  -4.6085
    -3.9505  -3.8601  -3.8510  -3.8226  -3.8195  -3.8063  -3.8009  -3.7727
    -3.3502  -3.3381  -3.3038  -3.2945  -3.2875  -3.2587  -3.2483  -3.2110
    -0.8946  -0.8741  -0.8252  -0.7807  -0.7518  -0.7268  -0.7017  -0.6703
    -0.6334  -0.6155  -0.5444  -0.4959  -0.2273  -0.1913  -0.1592  -0.1361
    -0.1045  -0.0889  -0.0351   0.0013   0.2950   0.3929   0.4349   0.4749
     0.4882   0.5017   0.5165   0.5635   0.5707   0.6283   0.6666   0.7090
     0.7282   0.8046   0.8376   0.8524   0.8922   0.9028   0.9131   0.9374
     0.9757   0.9874   1.0104   1.0339   1.0457   1.0632   1.0825   1.0955
     1.1068   1.1325   1.1425   1.1622   1.1873   1.2046   1.2153   1.2366
     1.2490   1.2636   1.2808   1.2953   1.3172   1.3411   1.3638   1.3923
     1.3983   1.4282   1.4483   1.4650   1.5050   1.5119   1.5625   1.5920
     1.6349   1.6881   1.6955   1.7575   1.7866   1.8117   1.8299   2.0723

          k = 0.1234-0.1225-0.1231 (310993 PWs)   bands (ev):

   -18.0114 -17.9306 -17.8951 -17.8908 -17.8639 -17.8533 -17.8417 -17.8116
   -15.7868 -15.7120 -15.7034 -15.6914 -15.6710 -15.6309 -15.6135 -15.5636
   -14.3491 -14.3332 -14.3132 -14.3116 -14.3019 -14.3018 -14.2977 -14.2959
   -14.2935 -14.2848 -14.2787 -14.2774 -14.2732 -14.2698 -14.2687 -14.2680
   -14.2662 -14.2589 -14.2588 -14.2581 -14.2555 -14.2523 -14.2520 -14.2482
   -14.2466 -14.2424 -14.2420 -14.2394 -14.2354 -14.2352 -14.2346 -14.2340
   -14.2319 -14.2246 -14.2213 -14.2201 -14.2171 -14.2099 -14.2063 -14.2029
    -9.8517  -9.8003  -9.7573  -9.7091  -9.6837  -9.6578  -9.6503  -9.6132
    -9.5442  -9.4859  -9.4311  -9.3960  -9.3788  -9.3251  -9.2872  -9.2568
    -9.2470  -9.2215  -9.1833  -9.1698  -9.1290  -9.1004  -9.0800  -9.0604
    -9.0462  -9.0373  -9.0144  -9.0108  -8.9766  -8.9404  -8.8985  -8.8766
    -7.8541  -7.7179  -7.7085  -7.7004  -7.6844  -7.6696  -7.6469  -7.6324
    -7.1431  -7.1388  -7.0964  -7.0897  -7.0692  -7.0283  -7.0065  -6.9439
    -5.8940  -5.5703  -5.4833  -5.4554  -5.4078  -5.3952  -5.3651  -5.3611
    -5.3282  -5.3208  -5.3124  -5.2828  -5.0614  -5.0035  -4.9915  -4.6083
    -3.9505  -3.8600  -3.8512  -3.8226  -3.8193  -3.8069  -3.8004  -3.7728
    -3.3503  -3.3382  -3.3037  -3.2946  -3.2879  -3.2586  -3.2480  -3.2108
    -0.9112  -0.8638  -0.8211  -0.7901  -0.7472  -0.7197  -0.7054  -0.6691
    -0.6322  -0.6138  -0.5437  -0.4915  -0.2304  -0.1905  -0.1577  -0.1388
    -0.1052  -0.0866  -0.0367   0.0019   0.2959   0.3933   0.4368   0.4695
     0.4896   0.4993   0.5143   0.5564   0.5655   0.6439   0.6658   0.7221
     0.7349   0.8018   0.8325   0.8410   0.8696   0.8891   0.9288   0.9385
     0.9759   0.9895   1.0067   1.0360   1.0537   1.0705   1.0883   1.1021
     1.1078   1.1266   1.1513   1.1558   1.1724   1.2091   1.2140   1.2395
     1.2506   1.2706   1.2795   1.2955   1.3175   1.3475   1.3539   1.3931
     1.4037   1.4279   1.4408   1.4658   1.5039   1.5143   1.5634   1.5861
     1.6317   1.6880   1.6968   1.7571   1.7864   1.8144   1.8284   2.0774

          k =-0.1234-0.1225 0.3693 (310949 PWs)   bands (ev):

   -18.0114 -17.9306 -17.8950 -17.8909 -17.8639 -17.8533 -17.8417 -17.8116
   -15.7868 -15.7119 -15.7034 -15.6912 -15.6711 -15.6309 -15.6136 -15.5636
   -14.3488 -14.3331 -14.3129 -14.3116 -14.3019 -14.3015 -14.2980 -14.2959
   -14.2933 -14.2850 -14.2787 -14.2774 -14.2728 -14.2698 -14.2690 -14.2687
   -14.2662 -14.2589 -14.2588 -14.2581 -14.2551 -14.2523 -14.2520 -14.2477
   -14.2466 -14.2428 -14.2424 -14.2394 -14.2354 -14.2352 -14.2346 -14.2343
   -14.2319 -14.2246 -14.2213 -14.2201 -14.2171 -14.2099 -14.2063 -14.2029
    -9.8316  -9.7934  -9.7519  -9.7165  -9.7104  -9.6651  -9.6571  -9.6162
    -9.5409  -9.4730  -9.4352  -9.4098  -9.3632  -9.3265  -9.3097  -9.2764
    -9.2461  -9.2087  -9.1799  -9.1353  -9.1201  -9.0962  -9.0663  -9.0607
    -9.0485  -9.0345  -9.0227  -9.0009  -8.9893  -8.9535  -8.9035  -8.8772
    -7.8541  -7.7167  -7.7049  -7.7010  -7.6878  -7.6705  -7.6476  -7.6325
    -7.1431  -7.1388  -7.0964  -7.0890  -7.0698  -7.0283  -7.0067  -6.9438
    -5.7840  -5.6164  -5.5601  -5.3975  -5.3773  -5.3666  -5.3557  -5.3423
    -5.3233  -5.3128  -5.2959  -5.2620  -5.1828  -5.1254  -4.8996  -4.7347
    -3.9503  -3.8567  -3.8479  -3.8258  -3.8192  -3.8087  -3.8027  -3.7725
    -3.3502  -3.3380  -3.3010  -3.2968  -3.2875  -3.2586  -3.2487  -3.2111
    -0.8625  -0.8220  -0.7627  -0.7437  -0.7033  -0.6573  -0.6061  -0.5830
    -0.4750  -0.4138  -0.3105  -0.2414  -0.1941  -0.1687  -0.1599  -0.1352
    -0.1056  -0.0755  -0.0393   0.0094   0.1080   0.2191   0.2624   0.3446
     0.3776   0.4188   0.4410   0.4768   0.5088   0.5365   0.5613   0.5883
     0.6222   0.6779   0.8163   0.8474   0.8613   0.9009   0.9126   0.9424
     0.9609   0.9681   0.9818   0.9954   1.0397   1.0580   1.0860   1.1040
     1.1344   1.1476   1.1638   1.1792   1.1949   1.2109   1.2307   1.2474
     1.2535   1.2695   1.3021   1.3212   1.3358   1.3526   1.3698   1.3872
     1.4016   1.4227   1.4306   1.4617   1.4884   1.5133   1.5261   1.5338
     1.5716   1.6451   1.6606   1.6888   1.7311   1.7508   1.8428   1.9433

          k =-0.1234 0.1225-0.3693 (310949 PWs)   bands (ev):

   -18.0114 -17.9306 -17.8950 -17.8909 -17.8639 -17.8533 -17.8417 -17.8116
   -15.7868 -15.7119 -15.7034 -15.6912 -15.6711 -15.6309 -15.6136 -15.5636
   -14.3488 -14.3331 -14.3129 -14.3116 -14.3019 -14.3015 -14.2980 -14.2959
   -14.2933 -14.2850 -14.2787 -14.2774 -14.2728 -14.2698 -14.2690 -14.2687
   -14.2662 -14.2589 -14.2588 -14.2581 -14.2551 -14.2523 -14.2520 -14.2477
   -14.2466 -14.2428 -14.2424 -14.2394 -14.2354 -14.2352 -14.2346 -14.2343
   -14.2319 -14.2246 -14.2213 -14.2201 -14.2171 -14.2099 -14.2063 -14.2029
    -9.8320  -9.7948  -9.7530  -9.7159  -9.7093  -9.6639  -9.6549  -9.6171
    -9.5355  -9.4774  -9.4432  -9.4055  -9.3643  -9.3250  -9.3034  -9.2876
    -9.2421  -9.2094  -9.1766  -9.1323  -9.1249  -9.0929  -9.0670  -9.0636
    -9.0490  -9.0311  -9.0262  -8.9993  -8.9870  -8.9555  -8.9028  -8.8778
    -7.8542  -7.7166  -7.7054  -7.7009  -7.6873  -7.6707  -7.6477  -7.6325
    -7.1430  -7.1388  -7.0965  -7.0890  -7.0698  -7.0284  -7.0065  -6.9438
    -5.7841  -5.6167  -5.5605  -5.4004  -5.3770  -5.3663  -5.3581  -5.3352
    -5.3234  -5.3102  -5.2943  -5.2663  -5.1855  -5.1235  -4.8999  -4.7351
    -3.9501  -3.8577  -3.8473  -3.8256  -3.8196  -3.8087  -3.8024  -3.7725
    -3.3500  -3.3380  -3.3010  -3.2968  -3.2872  -3.2589  -3.2488  -3.2111
    -0.8506  -0.8126  -0.7642  -0.7488  -0.7043  -0.6577  -0.6155  -0.5796
    -0.4825  -0.4202  -0.3159  -0.2510  -0.1917  -0.1783  -0.1554  -0.1390
    -0.0997  -0.0641  -0.0404   0.0022   0.1164   0.2260   0.2694   0.3391
     0.3890   0.4111   0.4461   0.4804   0.5081   0.5341   0.5595   0.5884
     0.6352   0.6674   0.8239   0.8436   0.8780   0.8905   0.9096   0.9372
     0.9615   0.9713   0.9990   1.0086   1.0237   1.0406   1.0741   1.0965
     1.1307   1.1452   1.1577   1.1960   1.2058   1.2174   1.2250   1.2508
     1.2620   1.2673   1.2997   1.3132   1.3238   1.3504   1.3633   1.3863
     1.4046   1.4173   1.4341   1.4725   1.4834   1.5095   1.5269   1.5438
     1.5789   1.6493   1.6702   1.6932   1.7290   1.7619   1.8231   1.9230

          k = 0.1234-0.1225-0.3693 (310949 PWs)   bands (ev):

   -18.0114 -17.9306 -17.8950 -17.8909 -17.8639 -17.8533 -17.8417 -17.8116
   -15.7868 -15.7119 -15.7034 -15.6912 -15.6711 -15.6309 -15.6136 -15.5636
   -14.3488 -14.3331 -14.3129 -14.3116 -14.3019 -14.3015 -14.2980 -14.2959
   -14.2933 -14.2850 -14.2787 -14.2774 -14.2728 -14.2698 -14.2690 -14.2687
   -14.2662 -14.2589 -14.2588 -14.2581 -14.2551 -14.2523 -14.2520 -14.2477
   -14.2466 -14.2428 -14.2424 -14.2394 -14.2354 -14.2352 -14.2346 -14.2343
   -14.2319 -14.2246 -14.2213 -14.2201 -14.2171 -14.2099 -14.2063 -14.2029
    -9.8315  -9.7934  -9.7517  -9.7180  -9.7092  -9.6641  -9.6574  -9.6190
    -9.5393  -9.4699  -9.4353  -9.4098  -9.3679  -9.3243  -9.2998  -9.2815
    -9.2542  -9.2138  -9.1682  -9.1402  -9.1199  -9.0954  -9.0733  -9.0581
    -9.0459  -9.0304  -9.0208  -9.0028  -8.9892  -8.9555  -8.9031  -8.8773
    -7.8541  -7.7167  -7.7058  -7.7000  -7.6880  -7.6705  -7.6477  -7.6326
    -7.1430  -7.1388  -7.0965  -7.0890  -7.0698  -7.0284  -7.0065  -6.9438
    -5.7842  -5.6182  -5.5583  -5.3987  -5.3739  -5.3625  -5.3599  -5.3365
    -5.3238  -5.3143  -5.2941  -5.2725  -5.1823  -5.1221  -4.9003  -4.7346
    -3.9501  -3.8575  -3.8476  -3.8254  -3.8194  -3.8094  -3.8018  -3.7726
    -3.3502  -3.3381  -3.3007  -3.2970  -3.2876  -3.2588  -3.2485  -3.2110
    -0.8489  -0.8176  -0.7649  -0.7542  -0.7067  -0.6552  -0.6145  -0.5846
    -0.4632  -0.4227  -0.3030  -0.2502  -0.1996  -0.1755  -0.1531  -0.1430
    -0.1000  -0.0697  -0.0405   0.0072   0.1110   0.2123   0.2718   0.3446
     0.3914   0.4108   0.4485   0.4754   0.5125   0.5336   0.5597   0.5809
     0.6328   0.6756   0.8152   0.8427   0.8774   0.8893   0.9202   0.9379
     0.9521   0.9606   0.9923   1.0129   1.0300   1.0600   1.0784   1.0988
     1.1273   1.1379   1.1566   1.1921   1.1996   1.2161   1.2295   1.2463
     1.2612   1.2750   1.3091   1.3192   1.3299   1.3493   1.3624   1.3881
     1.3973   1.4194   1.4274   1.4698   1.4967   1.5077   1.5214   1.5387
     1.5736   1.6485   1.6679   1.6961   1.7277   1.7619   1.8257   1.9262

          k =-0.1234-0.3674 0.1231 (310955 PWs)   bands (ev):

   -18.0114 -17.9306 -17.8951 -17.8908 -17.8639 -17.8533 -17.8417 -17.8116
   -15.7868 -15.7120 -15.7034 -15.6914 -15.6710 -15.6309 -15.6135 -15.5636
   -14.3491 -14.3330 -14.3132 -14.3116 -14.3019 -14.3014 -14.2976 -14.2959
   -14.2922 -14.2856 -14.2784 -14.2774 -14.2734 -14.2700 -14.2688 -14.2681
   -14.2662 -14.2591 -14.2588 -14.2581 -14.2557 -14.2523 -14.2520 -14.2483
   -14.2466 -14.2424 -14.2424 -14.2394 -14.2354 -14.2352 -14.2346 -14.2340
   -14.2319 -14.2246 -14.2213 -14.2201 -14.2171 -14.2099 -14.2063 -14.2029
    -9.8492  -9.8018  -9.7555  -9.7089  -9.6852  -9.6594  -9.6465  -9.6121
    -9.5438  -9.4703  -9.4247  -9.4037  -9.3784  -9.3451  -9.3184  -9.2803
    -9.2441  -9.2263  -9.1740  -9.1641  -9.1128  -9.0844  -9.0766  -9.0568
    -9.0414  -9.0250  -9.0082  -9.0037  -8.9715  -8.9443  -8.9134  -8.8924
    -7.8528  -7.7186  -7.7072  -7.6989  -7.6856  -7.6665  -7.6499  -7.6332
    -7.1426  -7.1390  -7.0966  -7.0895  -7.0694  -7.0276  -7.0073  -6.9440
    -5.7784  -5.5702  -5.5538  -5.4048  -5.3868  -5.3733  -5.3578  -5.3386
    -5.3225  -5.3157  -5.3058  -5.2717  -5.1545  -5.1307  -4.9402  -4.7569
    -3.9487  -3.8604  -3.8535  -3.8202  -3.8167  -3.8096  -3.8008  -3.7730
    -3.3509  -3.3372  -3.3033  -3.2946  -3.2882  -3.2578  -3.2496  -3.2111
    -0.9042  -0.8633  -0.7658  -0.7121  -0.6851  -0.6522  -0.5777  -0.5288
    -0.4006  -0.3561  -0.3006  -0.2293  -0.1897  -0.1661  -0.1509  -0.1276
    -0.1108  -0.0968  -0.0383  -0.0024   0.1926   0.2436   0.3050   0.3234
     0.3860   0.4442   0.4767   0.4912   0.5015   0.5371   0.5562   0.6087
     0.6392   0.6952   0.7292   0.7555   0.7904   0.8551   0.8746   0.9090
     0.9291   0.9593   1.0069   1.0317   1.0495   1.0561   1.0731   1.0928
     1.1107   1.1376   1.1546   1.1823   1.1955   1.2089   1.2311   1.2410
     1.2711   1.2803   1.2956   1.3079   1.3361   1.3531   1.3739   1.3978
     1.4197   1.4360   1.4447   1.4654   1.4810   1.4945   1.5196   1.5353
     1.5777   1.5960   1.6273   1.6430   1.6909   1.6974   1.8161   1.8883

          k =-0.1234 0.3674-0.1231 (310955 PWs)   bands (ev):

   -18.0114 -17.9306 -17.8951 -17.8908 -17.8639 -17.8533 -17.8417 -17.8116
   -15.7868 -15.7120 -15.7034 -15.6914 -15.6710 -15.6309 -15.6135 -15.5636
   -14.3491 -14.3330 -14.3132 -14.3116 -14.3019 -14.3014 -14.2976 -14.2959
   -14.2922 -14.2856 -14.2784 -14.2774 -14.2734 -14.2700 -14.2688 -14.2681
   -14.2662 -14.2591 -14.2588 -14.2581 -14.2557 -14.2523 -14.2520 -14.2483
   -14.2466 -14.2424 -14.2424 -14.2394 -14.2354 -14.2352 -14.2346 -14.2340
   -14.2319 -14.2246 -14.2213 -14.2201 -14.2171 -14.2099 -14.2063 -14.2029
    -9.8496  -9.8027  -9.7568  -9.7073  -9.6851  -9.6565  -9.6463  -9.6130
    -9.5404  -9.4693  -9.4285  -9.4089  -9.3798  -9.3450  -9.3086  -9.2917
    -9.2449  -9.2210  -9.1692  -9.1647  -9.1163  -9.0886  -9.0735  -9.0529
    -9.0340  -9.0301  -9.0176  -8.9997  -8.9682  -8.9459  -8.9136  -8.8926
    -7.8529  -7.7184  -7.7077  -7.6988  -7.6853  -7.6665  -7.6500  -7.6331
    -7.1425  -7.1390  -7.0966  -7.0895  -7.0694  -7.0276  -7.0072  -6.9440
    -5.7787  -5.5690  -5.5556  -5.4041  -5.3886  -5.3731  -5.3578  -5.3357
    -5.3240  -5.3143  -5.3065  -5.2712  -5.1536  -5.1320  -4.9400  -4.7575
    -3.9485  -3.8611  -3.8532  -3.8200  -3.8171  -3.8093  -3.8006  -3.7730
    -3.3508  -3.3372  -3.3033  -3.2946  -3.2878  -3.2580  -3.2496  -3.2111
    -0.8926  -0.8686  -0.7606  -0.7075  -0.6832  -0.6587  -0.5772  -0.5320
    -0.4055  -0.3637  -0.3089  -0.2331  -0.1921  -0.1745  -0.1545  -0.1341
    -0.1074  -0.0890  -0.0402  -0.0001   0.1992   0.2606   0.3069   0.3294
     0.4037   0.4493   0.4725   0.4796   0.5056   0.5366   0.5482   0.6174
     0.6331   0.6945   0.7222   0.7555   0.8109   0.8369   0.8902   0.9111
     0.9351   0.9444   1.0009   1.0142   1.0398   1.0570   1.0757   1.0985
     1.1240   1.1292   1.1592   1.1868   1.2030   1.2102   1.2255   1.2406
     1.2574   1.2780   1.3095   1.3129   1.3310   1.3585   1.3758   1.3980
     1.4160   1.4218   1.4497   1.4654   1.4873   1.4944   1.5143   1.5491
     1.5705   1.5902   1.6362   1.6423   1.6843   1.6992   1.8227   1.8711

          k = 0.1234-0.3674-0.1231 (310955 PWs)   bands (ev):

   -18.0114 -17.9306 -17.8951 -17.8908 -17.8639 -17.8533 -17.8417 -17.8116
   -15.7868 -15.7120 -15.7034 -15.6914 -15.6710 -15.6309 -15.6135 -15.5636
   -14.3491 -14.3330 -14.3132 -14.3116 -14.3019 -14.3014 -14.2976 -14.2959
   -14.2922 -14.2856 -14.2784 -14.2774 -14.2734 -14.2700 -14.2688 -14.2681
   -14.2662 -14.2591 -14.2588 -14.2581 -14.2557 -14.2523 -14.2520 -14.2483
   -14.2466 -14.2424 -14.2424 -14.2394 -14.2354 -14.2352 -14.2346 -14.2340
   -14.2319 -14.2246 -14.2213 -14.2201 -14.2171 -14.2099 -14.2063 -14.2029
    -9.8494  -9.8014  -9.7556  -9.7093  -9.6843  -9.6587  -9.6468  -9.6144
    -9.5429  -9.4673  -9.4249  -9.4078  -9.3781  -9.3471  -9.3058  -9.2854
    -9.2483  -9.2281  -9.1775  -9.1604  -9.1138  -9.0868  -9.0766  -9.0503
    -9.0341  -9.0301  -9.0167  -9.0002  -8.9674  -8.9468  -8.9139  -8.8922
    -7.8528  -7.7186  -7.7077  -7.6984  -7.6856  -7.6665  -7.6500  -7.6332
    -7.1425  -7.1390  -7.0967  -7.0894  -7.0694  -7.0276  -7.0072  -6.9440
    -5.7788  -5.5763  -5.5474  -5.4054  -5.3845  -5.3738  -5.3508  -5.3364
    -5.3234  -5.3164  -5.3117  -5.2777  -5.1508  -5.1310  -4.9406  -4.7570
    -3.9485  -3.8611  -3.8534  -3.8195  -3.8178  -3.8091  -3.8005  -3.7731
    -3.3509  -3.3373  -3.3033  -3.2946  -3.2883  -3.2579  -3.2493  -3.2110
    -0.9050  -0.8594  -0.7655  -0.7123  -0.6776  -0.6540  -0.5763  -0.5255
    -0.4051  -0.3600  -0.3073  -0.2311  -0.2018  -0.1820  -0.1512  -0.1365
    -0.1052  -0.0887  -0.0360  -0.0007   0.2003   0.2609   0.3046   0.3263
     0.4011   0.4579   0.4667   0.4812   0.5131   0.5344   0.5495   0.6136
     0.6485   0.6813   0.7145   0.7585   0.8092   0.8310   0.8849   0.9052
     0.9384   0.9440   1.0067   1.0218   1.0402   1.0625   1.0809   1.1065
     1.1148   1.1195   1.1644   1.1791   1.1896   1.2107   1.2239   1.2569
     1.2677   1.2750   1.2991   1.3154   1.3308   1.3540   1.3700   1.4050
     1.4200   1.4346   1.4479   1.4624   1.4788   1.4995   1.5197   1.5386
     1.5718   1.5964   1.6238   1.6515   1.6800   1.6972   1.8238   1.8761

          k =-0.1234-0.3674 0.3693 (310965 PWs)   bands (ev):

   -18.0114 -17.9306 -17.8950 -17.8909 -17.8639 -17.8533 -17.8417 -17.8116
   -15.7868 -15.7119 -15.7034 -15.6912 -15.6711 -15.6309 -15.6136 -15.5636
   -14.3488 -14.3329 -14.3129 -14.3116 -14.3019 -14.3011 -14.2979 -14.2959
   -14.2919 -14.2860 -14.2785 -14.2774 -14.2729 -14.2700 -14.2692 -14.2687
   -14.2662 -14.2591 -14.2588 -14.2581 -14.2553 -14.2523 -14.2520 -14.2477
   -14.2466 -14.2431 -14.2424 -14.2394 -14.2354 -14.2352 -14.2346 -14.2343
   -14.2319 -14.2246 -14.2213 -14.2201 -14.2171 -14.2099 -14.2063 -14.2029
    -9.8316  -9.7919  -9.7492  -9.7164  -9.7109  -9.6645  -9.6564  -9.6165
    -9.5413  -9.4594  -9.4305  -9.4038  -9.3863  -9.3393  -9.3229  -9.2853
    -9.2544  -9.2057  -9.1741  -9.1456  -9.1246  -9.0796  -9.0632  -9.0454
    -9.0419  -9.0261  -9.0132  -9.0013  -8.9812  -8.9454  -8.9141  -8.8998
    -7.8528  -7.7170  -7.7037  -7.6993  -7.6892  -7.6680  -7.6503  -7.6332
    -7.1426  -7.1390  -7.0965  -7.0889  -7.0700  -7.0277  -7.0073  -6.9439
    -5.6746  -5.5674  -5.5023  -5.4582  -5.3960  -5.3710  -5.3640  -5.3257
    -5.3233  -5.3134  -5.2828  -5.2582  -5.2321  -5.0702  -5.0356  -4.8808
    -3.9484  -3.8588  -3.8500  -3.8231  -3.8156  -3.8120  -3.8016  -3.7728
    -3.3508  -3.3372  -3.3009  -3.2970  -3.2875  -3.2579  -3.2502  -3.2113
    -0.8517  -0.7618  -0.6415  -0.6070  -0.4972  -0.4585  -0.3783  -0.3424
    -0.3369  -0.3036  -0.2723  -0.2441  -0.1838  -0.1527  -0.1428  -0.1240
    -0.0999  -0.0773  -0.0391   0.0076   0.0886   0.1729   0.2186   0.2303
     0.2808   0.3236   0.3406   0.3834   0.4081   0.4776   0.5467   0.5579
     0.6045   0.6561   0.7013   0.7229   0.7526   0.8093   0.8242   0.8412
     0.8616   0.8903   0.9314   0.9523   0.9829   1.0205   1.0580   1.0873
     1.1159   1.1420   1.1585   1.1763   1.1902   1.2128   1.2471   1.2743
     1.2875   1.3073   1.3170   1.3372   1.3472   1.3616   1.3827   1.3981
     1.4101   1.4234   1.4410   1.4654   1.4799   1.4881   1.4956   1.5191
     1.5497   1.5627   1.6021   1.6269   1.6519   1.6749   1.6990   1.7726

          k =-0.1234 0.3674-0.3693 (310965 PWs)   bands (ev):

   -18.0114 -17.9306 -17.8950 -17.8909 -17.8639 -17.8533 -17.8417 -17.8116
   -15.7868 -15.7119 -15.7034 -15.6912 -15.6711 -15.6309 -15.6136 -15.5636
   -14.3488 -14.3329 -14.3129 -14.3116 -14.3019 -14.3011 -14.2979 -14.2959
   -14.2919 -14.2860 -14.2785 -14.2774 -14.2729 -14.2700 -14.2692 -14.2687
   -14.2662 -14.2591 -14.2588 -14.2581 -14.2553 -14.2523 -14.2520 -14.2477
   -14.2466 -14.2431 -14.2424 -14.2394 -14.2354 -14.2352 -14.2346 -14.2343
   -14.2319 -14.2246 -14.2213 -14.2201 -14.2171 -14.2099 -14.2063 -14.2029
    -9.8317  -9.7933  -9.7514  -9.7153  -9.7095  -9.6621  -9.6556  -9.6183
    -9.5366  -9.4588  -9.4372  -9.4022  -9.3859  -9.3431  -9.3233  -9.2871
    -9.2561  -9.2009  -9.1698  -9.1424  -9.1292  -9.0835  -9.0604  -9.0438
    -9.0389  -9.0322  -9.0119  -9.0010  -8.9797  -8.9463  -8.9144  -8.8999
    -7.8529  -7.7169  -7.7042  -7.6993  -7.6886  -7.6680  -7.6504  -7.6331
    -7.1425  -7.1390  -7.0966  -7.0889  -7.0700  -7.0277  -7.0072  -6.9440
    -5.6746  -5.5680  -5.5031  -5.4583  -5.3939  -5.3712  -5.3640  -5.3283
    -5.3226  -5.3114  -5.2846  -5.2560  -5.2323  -5.0699  -5.0361  -4.8815
    -3.9482  -3.8597  -3.8495  -3.8228  -3.8169  -3.8113  -3.8013  -3.7729
    -3.3507  -3.3372  -3.3009  -3.2970  -3.2872  -3.2582  -3.2502  -3.2113
    -0.8491  -0.7502  -0.6380  -0.5965  -0.5083  -0.4647  -0.3868  -0.3541
    -0.3416  -0.3118  -0.2721  -0.2509  -0.1895  -0.1547  -0.1414  -0.1283
    -0.0977  -0.0597  -0.0456   0.0003   0.0939   0.1858   0.2283   0.2417
     0.2984   0.3326   0.3451   0.3712   0.3999   0.4695   0.5342   0.5600
     0.6195   0.6563   0.6925   0.7334   0.7616   0.7890   0.8251   0.8525
     0.8626   0.8973   0.9229   0.9588   0.9864   1.0060   1.0391   1.0830
     1.1148   1.1384   1.1610   1.1951   1.2006   1.2239   1.2411   1.2575
     1.2823   1.3027   1.3210   1.3369   1.3410   1.3711   1.3801   1.3933
     1.4070   1.4264   1.4523   1.4592   1.4834   1.4930   1.4990   1.5296
     1.5472   1.5569   1.5917   1.6354   1.6594   1.6758   1.7007   1.7481

          k = 0.1234-0.3674-0.3693 (310965 PWs)   bands (ev):

   -18.0114 -17.9306 -17.8950 -17.8909 -17.8639 -17.8533 -17.8417 -17.8116
   -15.7868 -15.7119 -15.7034 -15.6912 -15.6711 -15.6309 -15.6136 -15.5636
   -14.3488 -14.3329 -14.3129 -14.3116 -14.3019 -14.3011 -14.2979 -14.2959
   -14.2919 -14.2860 -14.2785 -14.2774 -14.2729 -14.2700 -14.2692 -14.2687
   -14.2662 -14.2591 -14.2588 -14.2581 -14.2553 -14.2523 -14.2520 -14.2477
   -14.2466 -14.2431 -14.2424 -14.2394 -14.2354 -14.2352 -14.2346 -14.2343
   -14.2319 -14.2246 -14.2213 -14.2201 -14.2171 -14.2099 -14.2063 -14.2029
    -9.8315  -9.7919  -9.7491  -9.7182  -9.7095  -9.6634  -9.6568  -9.6193
    -9.5396  -9.4554  -9.4271  -9.4111  -9.3881  -9.3353  -9.3155  -9.2895
    -9.2648  -9.2053  -9.1665  -9.1459  -9.1285  -9.0816  -9.0640  -9.0426
    -9.0355  -9.0284  -9.0168  -9.0007  -8.9786  -8.9469  -8.9155  -8.8989
    -7.8528  -7.7170  -7.7046  -7.6983  -7.6893  -7.6680  -7.6504  -7.6332
    -7.1425  -7.1390  -7.0966  -7.0889  -7.0700  -7.0277  -7.0072  -6.9440
    -5.6740  -5.5756  -5.4993  -5.4417  -5.3985  -5.3708  -5.3577  -5.3425
    -5.3227  -5.3187  -5.2916  -5.2511  -5.2238  -5.0672  -5.0401  -4.8804
    -3.9482  -3.8596  -3.8497  -3.8226  -3.8170  -3.8112  -3.8012  -3.7729
    -3.3508  -3.3373  -3.3006  -3.2972  -3.2877  -3.2581  -3.2499  -3.2112
    -0.8475  -0.7607  -0.6362  -0.6060  -0.5074  -0.4560  -0.3745  -0.3563
    -0.3110  -0.3037  -0.2736  -0.2646  -0.1989  -0.1703  -0.1441  -0.1228
    -0.1025  -0.0715  -0.0393   0.0083   0.0942   0.1880   0.2298   0.2458
     0.2963   0.3212   0.3460   0.3632   0.4123   0.4689   0.5435   0.5549
     0.6138   0.6633   0.6823   0.7271   0.7510   0.8051   0.8266   0.8415
     0.8584   0.9034   0.9231   0.9569   0.9926   1.0098   1.0599   1.0822
     1.1154   1.1255   1.1420   1.1893   1.1931   1.2240   1.2569   1.2734
     1.2847   1.2904   1.3291   1.3358   1.3519   1.3677   1.3849   1.3881
     1.4101   1.4215   1.4451   1.4642   1.4798   1.4921   1.5089   1.5268
     1.5474   1.5560   1.5872   1.6283   1.6585   1.6752   1.7014   1.7546

          k =-0.3702-0.1225 0.1231 (310968 PWs)   bands (ev):

   -18.0113 -17.9306 -17.8951 -17.8908 -17.8640 -17.8533 -17.8416 -17.8117
   -15.7852 -15.7119 -15.7050 -15.6913 -15.6710 -15.6308 -15.6135 -15.5637
   -14.3488 -14.3328 -14.3137 -14.3116 -14.3019 -14.3018 -14.2976 -14.2959
   -14.2935 -14.2848 -14.2774 -14.2765 -14.2735 -14.2714 -14.2687 -14.2679
   -14.2662 -14.2588 -14.2581 -14.2579 -14.2556 -14.2523 -14.2520 -14.2492
   -14.2466 -14.2424 -14.2421 -14.2394 -14.2353 -14.2352 -14.2346 -14.2343
   -14.2319 -14.2246 -14.2213 -14.2201 -14.2171 -14.2099 -14.2063 -14.2029
    -9.8291  -9.7769  -9.7704  -9.7082  -9.6978  -9.6801  -9.6571  -9.6177
    -9.5502  -9.4922  -9.4106  -9.3927  -9.3623  -9.3494  -9.3119  -9.2553
    -9.2334  -9.2141  -9.1859  -9.1716  -9.1335  -9.1014  -9.0836  -9.0580
    -9.0369  -9.0284  -9.0013  -8.9797  -8.9642  -8.9440  -8.9211  -8.9013
    -7.8516  -7.7178  -7.7115  -7.7033  -7.6857  -7.6703  -7.6476  -7.6326
    -7.1429  -7.1378  -7.0948  -7.0897  -7.0690  -7.0280  -7.0065  -6.9439
    -5.7754  -5.5960  -5.5306  -5.4029  -5.3768  -5.3711  -5.3618  -5.3506
    -5.3343  -5.3123  -5.2956  -5.2705  -5.1904  -5.1252  -4.9058  -4.7426
    -3.9498  -3.8584  -3.8519  -3.8228  -3.8187  -3.8068  -3.8026  -3.7729
    -3.3503  -3.3362  -3.3034  -3.2952  -3.2874  -3.2597  -3.2463  -3.2146
    -0.8856  -0.8213  -0.7916  -0.7674  -0.7058  -0.6661  -0.6515  -0.5777
    -0.4552  -0.3432  -0.2929  -0.2434  -0.1848  -0.1727  -0.1473  -0.1123
    -0.0970  -0.0488  -0.0384  -0.0011   0.1172   0.2340   0.3131   0.3486
     0.4130   0.4366   0.4482   0.4965   0.5246   0.5355   0.5612   0.6308
     0.6358   0.7257   0.7588   0.7917   0.8247   0.8475   0.8992   0.9137
     0.9465   0.9568   0.9946   1.0165   1.0407   1.0724   1.0864   1.1078
     1.1166   1.1391   1.1444   1.1575   1.1865   1.2077   1.2139   1.2447
     1.2714   1.2882   1.3061   1.3318   1.3356   1.3596   1.3883   1.4098
     1.4194   1.4281   1.4496   1.4700   1.4873   1.5071   1.5550   1.5647
     1.5890   1.5927   1.6156   1.6486   1.6903   1.7243   1.8099   1.8945

          k =-0.3702 0.1225-0.1231 (310968 PWs)   bands (ev):

   -18.0113 -17.9306 -17.8951 -17.8908 -17.8640 -17.8533 -17.8416 -17.8117
   -15.7852 -15.7119 -15.7050 -15.6913 -15.6710 -15.6308 -15.6135 -15.5637
   -14.3488 -14.3328 -14.3137 -14.3116 -14.3019 -14.3018 -14.2976 -14.2959
   -14.2935 -14.2848 -14.2774 -14.2765 -14.2735 -14.2714 -14.2687 -14.2679
   -14.2662 -14.2588 -14.2581 -14.2579 -14.2556 -14.2523 -14.2520 -14.2492
   -14.2466 -14.2424 -14.2421 -14.2394 -14.2353 -14.2352 -14.2346 -14.2343
   -14.2319 -14.2246 -14.2213 -14.2201 -14.2171 -14.2099 -14.2063 -14.2029
    -9.8292  -9.7825  -9.7684  -9.7065  -9.6951  -9.6784  -9.6566  -9.6187
    -9.5477  -9.4926  -9.4229  -9.3901  -9.3695  -9.3408  -9.3058  -9.2584
    -9.2291  -9.2148  -9.1906  -9.1700  -9.1355  -9.1006  -9.0797  -9.0574
    -9.0404  -9.0287  -9.0008  -8.9824  -8.9600  -8.9441  -8.9195  -8.9037
    -7.8517  -7.7175  -7.7123  -7.7029  -7.6855  -7.6705  -7.6477  -7.6326
    -7.1428  -7.1377  -7.0949  -7.0897  -7.0690  -7.0280  -7.0064  -6.9440
    -5.7756  -5.5973  -5.5296  -5.4043  -5.3833  -5.3670  -5.3633  -5.3490
    -5.3266  -5.3124  -5.2918  -5.2750  -5.1929  -5.1253  -4.9054  -4.7431
    -3.9496  -3.8591  -3.8517  -3.8226  -3.8190  -3.8065  -3.8025  -3.7729
    -3.3501  -3.3362  -3.3034  -3.2952  -3.2871  -3.2599  -3.2464  -3.2146
    -0.8802  -0.8198  -0.7879  -0.7705  -0.6920  -0.6679  -0.6502  -0.5826
    -0.4697  -0.3548  -0.2981  -0.2470  -0.1915  -0.1772  -0.1601  -0.0959
    -0.0918  -0.0542  -0.0323  -0.0079   0.1296   0.2553   0.3034   0.3541
     0.4171   0.4297   0.4622   0.4904   0.5143   0.5490   0.5672   0.6319
     0.6460   0.7184   0.7565   0.7852   0.8317   0.8635   0.8864   0.8952
     0.9472   0.9665   1.0007   1.0174   1.0343   1.0539   1.0761   1.1005
     1.1178   1.1387   1.1632   1.1703   1.1815   1.1989   1.2242   1.2462
     1.2641   1.2938   1.3023   1.3252   1.3430   1.3562   1.3900   1.4093
     1.4179   1.4230   1.4510   1.4624   1.4865   1.5129   1.5541   1.5765
     1.5889   1.6027   1.6210   1.6526   1.6847   1.7071   1.8222   1.8757

          k = 0.3702-0.1225-0.1231 (310968 PWs)   bands (ev):

   -18.0113 -17.9306 -17.8951 -17.8908 -17.8640 -17.8533 -17.8416 -17.8117
   -15.7852 -15.7119 -15.7050 -15.6913 -15.6710 -15.6308 -15.6135 -15.5637
   -14.3488 -14.3328 -14.3137 -14.3116 -14.3019 -14.3018 -14.2976 -14.2959
   -14.2935 -14.2848 -14.2774 -14.2765 -14.2735 -14.2714 -14.2687 -14.2679
   -14.2662 -14.2588 -14.2581 -14.2579 -14.2556 -14.2523 -14.2520 -14.2492
   -14.2466 -14.2424 -14.2421 -14.2394 -14.2353 -14.2352 -14.2346 -14.2343
   -14.2319 -14.2246 -14.2213 -14.2201 -14.2171 -14.2099 -14.2063 -14.2029
    -9.8290  -9.7790  -9.7683  -9.7093  -9.6971  -9.6791  -9.6574  -9.6192
    -9.5490  -9.4913  -9.4109  -9.3943  -9.3684  -9.3436  -9.3040  -9.2607
    -9.2379  -9.2083  -9.1918  -9.1714  -9.1316  -9.1038  -9.0796  -9.0625
    -9.0347  -9.0257  -8.9989  -8.9837  -8.9641  -8.9427  -8.9215  -8.9017
    -7.8516  -7.7175  -7.7122  -7.7029  -7.6855  -7.6705  -7.6477  -7.6327
    -7.1428  -7.1377  -7.0949  -7.0897  -7.0690  -7.0280  -7.0064  -6.9439
    -5.7755  -5.5966  -5.5311  -5.4030  -5.3825  -5.3697  -5.3594  -5.3471
    -5.3302  -5.3116  -5.2904  -5.2790  -5.1918  -5.1264  -4.9048  -4.7430
    -3.9496  -3.8591  -3.8517  -3.8229  -3.8190  -3.8065  -3.8023  -3.7730
    -3.3503  -3.3363  -3.3034  -3.2952  -3.2875  -3.2598  -3.2461  -3.2145
    -0.8904  -0.8152  -0.7895  -0.7647  -0.6935  -0.6672  -0.6548  -0.5764
    -0.4697  -0.3474  -0.3018  -0.2424  -0.1911  -0.1768  -0.1529  -0.1012
    -0.0957  -0.0520  -0.0343  -0.0079   0.1242   0.2506   0.3130   0.3485
     0.4107   0.4433   0.4575   0.4892   0.5163   0.5401   0.5698   0.6251
     0.6360   0.7194   0.7680   0.7980   0.8335   0.8581   0.8736   0.9199
     0.9391   0.9734   0.9868   1.0150   1.0315   1.0528   1.0781   1.1044
     1.1242   1.1332   1.1564   1.1612   1.1901   1.2116   1.2253   1.2403
     1.2722   1.2867   1.3088   1.3193   1.3376   1.3629   1.3806   1.4059
     1.4241   1.4288   1.4507   1.4611   1.4902   1.5122   1.5523   1.5611
     1.5880   1.6125   1.6173   1.6535   1.6897   1.7076   1.8193   1.8813

          k =-0.3702-0.1225 0.3693 (310988 PWs)   bands (ev):

   -18.0113 -17.9306 -17.8950 -17.8909 -17.8640 -17.8533 -17.8416 -17.8117
   -15.7852 -15.7119 -15.7050 -15.6912 -15.6712 -15.6308 -15.6136 -15.5637
   -14.3486 -14.3327 -14.3134 -14.3116 -14.3019 -14.3015 -14.2979 -14.2959
   -14.2933 -14.2850 -14.2774 -14.2765 -14.2733 -14.2712 -14.2689 -14.2687
   -14.2662 -14.2588 -14.2581 -14.2579 -14.2552 -14.2523 -14.2520 -14.2486
   -14.2466 -14.2428 -14.2424 -14.2394 -14.2353 -14.2352 -14.2347 -14.2346
   -14.2319 -14.2246 -14.2213 -14.2201 -14.2171 -14.2099 -14.2063 -14.2029
    -9.8138  -9.7729  -9.7539  -9.7131  -9.7081  -9.6929  -9.6750  -9.6228
    -9.5393  -9.4726  -9.4417  -9.4187  -9.3557  -9.3308  -9.3166  -9.2816
    -9.2304  -9.2099  -9.1781  -9.1388  -9.1210  -9.0943  -9.0730  -9.0612
    -9.0459  -9.0192  -9.0029  -8.9830  -8.9702  -8.9509  -8.9284  -8.9028
    -7.8518  -7.7169  -7.7099  -7.7012  -7.6891  -7.6719  -7.6484  -7.6326
    -7.1428  -7.1377  -7.0949  -7.0889  -7.0696  -7.0281  -7.0065  -6.9438
    -5.6690  -5.5329  -5.5060  -5.4826  -5.3962  -5.3736  -5.3623  -5.3558
    -5.3422  -5.3181  -5.3030  -5.2794  -5.1858  -5.0411  -5.0197  -4.8684
    -3.9494  -3.8562  -3.8480  -3.8240  -3.8201  -3.8101  -3.8034  -3.7726
    -3.3502  -3.3361  -3.3014  -3.2965  -3.2876  -3.2597  -3.2462  -3.2145
    -0.8014  -0.7585  -0.7198  -0.6854  -0.5671  -0.4758  -0.4423  -0.3784
    -0.3422  -0.2832  -0.2467  -0.1913  -0.1772  -0.1646  -0.1448  -0.1098
    -0.0993  -0.0667  -0.0402   0.0109   0.0731   0.1609   0.1978   0.2424
     0.2762   0.3239   0.3598   0.4051   0.4470   0.4643   0.5103   0.5316
     0.6505   0.6823   0.7345   0.7613   0.7683   0.8089   0.8202   0.8509
     0.8914   0.9187   0.9392   0.9619   0.9940   1.0244   1.0445   1.0843
     1.1076   1.1430   1.1711   1.1896   1.2026   1.2122   1.2355   1.2682
     1.2732   1.2920   1.3304   1.3398   1.3448   1.3602   1.3841   1.3962
     1.4171   1.4259   1.4334   1.4634   1.4862   1.4958   1.5016   1.5342
     1.5487   1.5589   1.6056   1.6400   1.6683   1.7134   1.7338   1.7714

          k =-0.3702 0.1225-0.3693 (310988 PWs)   bands (ev):

   -18.0113 -17.9306 -17.8950 -17.8909 -17.8640 -17.8533 -17.8416 -17.8117
   -15.7852 -15.7119 -15.7050 -15.6912 -15.6712 -15.6308 -15.6136 -15.5637
   -14.3486 -14.3327 -14.3134 -14.3116 -14.3019 -14.3015 -14.2979 -14.2959
   -14.2933 -14.2850 -14.2774 -14.2765 -14.2733 -14.2712 -14.2689 -14.2687
   -14.2662 -14.2588 -14.2581 -14.2579 -14.2552 -14.2523 -14.2520 -14.2486
   -14.2466 -14.2428 -14.2424 -14.2394 -14.2353 -14.2352 -14.2347 -14.2346
   -14.2319 -14.2246 -14.2213 -14.2201 -14.2171 -14.2099 -14.2063 -14.2029
    -9.8130  -9.7783  -9.7544  -9.7113  -9.7076  -9.6874  -9.6744  -9.6247
    -9.5334  -9.4757  -9.4542  -9.4122  -9.3560  -9.3282  -9.3176  -9.2829
    -9.2302  -9.2101  -9.1759  -9.1350  -9.1274  -9.0854  -9.0780  -9.0626
    -9.0490  -9.0160  -9.0058  -8.9809  -8.9675  -8.9544  -8.9246  -8.9056
    -7.8519  -7.7166  -7.7104  -7.7009  -7.6888  -7.6720  -7.6485  -7.6325
    -7.1427  -7.1377  -7.0950  -7.0889  -7.0696  -7.0281  -7.0063  -6.9439
    -5.6688  -5.5373  -5.5025  -5.4845  -5.3993  -5.3711  -5.3639  -5.3531
    -5.3281  -5.3204  -5.3080  -5.2829  -5.1873  -5.0383  -5.0219  -4.8688
    -3.9492  -3.8573  -3.8473  -3.8233  -3.8211  -3.8101  -3.8030  -3.7726
    -3.3501  -3.3361  -3.3014  -3.2965  -3.2873  -3.2599  -3.2462  -3.2145
    -0.7965  -0.7511  -0.7152  -0.6891  -0.5491  -0.4999  -0.4238  -0.3871
    -0.3455  -0.2999  -0.2704  -0.2015  -0.1890  -0.1639  -0.1521  -0.1058
    -0.0884  -0.0667  -0.0367  -0.0124   0.0938   0.1886   0.2180   0.2646
     0.2925   0.3076   0.3681   0.3904   0.4326   0.4635   0.5068   0.5377
     0.6523   0.6909   0.7271   0.7572   0.7787   0.8061   0.8193   0.8410
     0.8994   0.9094   0.9476   0.9616   0.9937   1.0195   1.0370   1.0885
     1.1014   1.1418   1.1560   1.1897   1.2064   1.2276   1.2501   1.2717
[...]
    -9.0047  -8.9884  -8.9621  -8.9533  -8.9410  -8.9265  -8.9100  -8.8918
    -7.8277  -7.7088  -7.6931  -7.6667  -7.6587  -7.6559  -7.6434  -7.6036
    -7.1036  -7.0984  -7.0772  -7.0378  -7.0275  -7.0120  -7.0057  -6.9015
    -5.5360  -5.4742  -5.3838  -5.3686  -5.3494  -5.3400  -5.3270  -5.3184
    -5.3124  -5.3004  -5.2844  -5.2268  -5.1790  -5.1376  -5.1222  -4.9768
    -3.9083  -3.8431  -3.8331  -3.8161  -3.7977  -3.7904  -3.7807  -3.7346
    -3.3381  -3.3098  -3.2758  -3.2573  -3.2555  -3.2478  -3.2399  -3.1821
    -0.5728  -0.5121  -0.4693  -0.4098  -0.3898  -0.3312  -0.3175  -0.2811
    -0.2557  -0.2378  -0.2126  -0.1630  -0.1424  -0.1278  -0.0987  -0.0808
    -0.0751  -0.0412   0.0052   0.0352   0.0552   0.1531   0.1817   0.1964
     0.2679   0.2765   0.3057   0.3466   0.3748   0.3942   0.4751   0.4930
     0.6298   0.6780   0.7213   0.7507   0.7914   0.8026   0.8380   0.8596
     0.8774   0.9049   0.9306   0.9440   0.9697   0.9991   1.0136   1.0497
     1.0738   1.0942   1.1142   1.1188   1.1545   1.1753   1.1935   1.2207
     1.2978   1.3231   1.3390   1.3665   1.3741   1.4017   1.4130   1.4183
     1.4451   1.4627   1.4815   1.4920   1.5156   1.5207   1.5473   1.5520
     1.5645   1.5843   1.5959   1.6090   1.6504   1.6586   1.6826   1.7086

          k =-0.3704 0.3679-0.3700 (311031 PWs)   bands (ev):

   -17.9849 -17.9085 -17.8557 -17.8549 -17.8490 -17.8452 -17.8338 -17.7833
   -15.7532 -15.6875 -15.6839 -15.6428 -15.6283 -15.6210 -15.6070 -15.5254
   -14.3136 -14.2974 -14.2783 -14.2759 -14.2652 -14.2651 -14.2624 -14.2573
   -14.2491 -14.2464 -14.2407 -14.2400 -14.2335 -14.2330 -14.2297 -14.2280
   -14.2262 -14.2234 -14.2193 -14.2177 -14.2121 -14.2118 -14.2115 -14.2094
   -14.2051 -14.2035 -14.2005 -14.1999 -14.1952 -14.1949 -14.1945 -14.1910
   -14.1857 -14.1856 -14.1847 -14.1828 -14.1790 -14.1669 -14.1644 -14.1608
    -9.7729  -9.7375  -9.7219  -9.6991  -9.6721  -9.6661  -9.6459  -9.5791
    -9.4959  -9.4328  -9.4162  -9.3846  -9.3709  -9.3245  -9.3028  -9.2494
    -9.2341  -9.1657  -9.1500  -9.1203  -9.1035  -9.0590  -9.0262  -9.0236
    -9.0067  -8.9886  -8.9602  -8.9512  -8.9415  -8.9248  -8.9089  -8.8949
    -7.8277  -7.7088  -7.6932  -7.6659  -7.6596  -7.6553  -7.6438  -7.6037
    -7.1034  -7.0983  -7.0773  -7.0378  -7.0275  -7.0121  -7.0056  -6.9015
    -5.5326  -5.4807  -5.3878  -5.3731  -5.3506  -5.3298  -5.3279  -5.3171
    -5.3101  -5.2985  -5.2800  -5.2303  -5.1825  -5.1316  -5.1260  -4.9787
    -3.9082  -3.8439  -3.8326  -3.8159  -3.7980  -3.7904  -3.7805  -3.7346
    -3.3379  -3.3098  -3.2753  -3.2577  -3.2557  -3.2477  -3.2399  -3.1821
    -0.5333  -0.5012  -0.4480  -0.4137  -0.3735  -0.3460  -0.3298  -0.2998
    -0.2845  -0.2691  -0.2480  -0.1815  -0.1492  -0.1360  -0.1013  -0.0950
    -0.0600  -0.0398  -0.0215   0.0300   0.1292   0.1736   0.1891   0.2543
     0.2806   0.2966   0.3142   0.3322   0.3672   0.4038   0.4263   0.4707
     0.6666   0.6889   0.7109   0.7531   0.7750   0.8070   0.8372   0.8466
     0.8987   0.9051   0.9241   0.9473   0.9704   0.9812   1.0098   1.0337
     1.0838   1.1025   1.1105   1.1254   1.1484   1.1746   1.1909   1.2167
     1.2928   1.3152   1.3454   1.3718   1.3803   1.3978   1.4167   1.4256
     1.4379   1.4643   1.4796   1.4941   1.5072   1.5183   1.5387   1.5627
     1.5778   1.5888   1.6042   1.6174   1.6323   1.6556   1.6725   1.7058

          k = 0.3704-0.3679-0.3700 (311031 PWs)   bands (ev):

   -17.9849 -17.9085 -17.8557 -17.8549 -17.8490 -17.8452 -17.8338 -17.7833
   -15.7532 -15.6875 -15.6839 -15.6428 -15.6283 -15.6210 -15.6070 -15.5254
   -14.3136 -14.2974 -14.2783 -14.2759 -14.2652 -14.2651 -14.2624 -14.2573
   -14.2491 -14.2464 -14.2407 -14.2400 -14.2335 -14.2330 -14.2297 -14.2280
   -14.2262 -14.2234 -14.2193 -14.2177 -14.2121 -14.2118 -14.2115 -14.2094
   -14.2051 -14.2035 -14.2005 -14.1999 -14.1952 -14.1949 -14.1945 -14.1910
   -14.1857 -14.1856 -14.1847 -14.1828 -14.1790 -14.1669 -14.1644 -14.1608
    -9.7718  -9.7353  -9.7173  -9.7051  -9.6742  -9.6692  -9.6446  -9.5800
    -9.4968  -9.4282  -9.4105  -9.3938  -9.3719  -9.3105  -9.3011  -9.2584
    -9.2367  -9.1726  -9.1438  -9.1235  -9.1004  -9.0604  -9.0302  -9.0196
    -9.0046  -8.9836  -8.9625  -8.9574  -8.9346  -8.9300  -8.9100  -8.8922
    -7.8277  -7.7089  -7.6931  -7.6655  -7.6605  -7.6550  -7.6437  -7.6036
    -7.1035  -7.0983  -7.0773  -7.0378  -7.0275  -7.0120  -7.0056  -6.9015
    -5.5319  -5.4848  -5.3871  -5.3676  -5.3491  -5.3304  -5.3260  -5.3179
    -5.3082  -5.2966  -5.2810  -5.2427  -5.1755  -5.1396  -5.1216  -4.9771
    -3.9081  -3.8441  -3.8325  -3.8158  -3.7983  -3.7903  -3.7802  -3.7346
    -3.3381  -3.3099  -3.2757  -3.2576  -3.2559  -3.2472  -3.2399  -3.1819
    -0.5672  -0.4894  -0.4522  -0.3968  -0.3777  -0.3396  -0.3161  -0.2992
    -0.2932  -0.2474  -0.2201  -0.1811  -0.1695  -0.1406  -0.1107  -0.0944
    -0.0741  -0.0442  -0.0135   0.0476   0.1103   0.1582   0.2013   0.2341
     0.2785   0.3042   0.3195   0.3398   0.3790   0.3902   0.4242   0.4802
     0.6541   0.6822   0.7187   0.7634   0.7696   0.8066   0.8309   0.8624
     0.8814   0.9139   0.9191   0.9537   0.9682   0.9800   1.0169   1.0309
     1.0823   1.0974   1.1080   1.1307   1.1467   1.1674   1.1907   1.2309
     1.2939   1.3113   1.3452   1.3658   1.3778   1.4024   1.4219   1.4256
     1.4436   1.4639   1.4826   1.4907   1.5150   1.5229   1.5417   1.5558
     1.5663   1.5834   1.6022   1.6165   1.6331   1.6582   1.6787   1.7035

     highest occupied level (ev):     2.1295

!    total energy              =  -16707.46230904 Ry
     Harris-Foulkes estimate   =  -16707.46230904 Ry
     estimated scf accuracy    <          2.8E-10 Ry

     total all-electron energy =   -678114.521994 Ry

     The total energy is the sum of the following terms:

     one-electron contribution =    -948.97447414 Ry
     hartree contribution      =     674.21054970 Ry
     xc contribution           =    -795.83774974 Ry
     ewald contribution        =   -1218.22642723 Ry
     DFT-D3 Dispersion         =      -0.64683093 Ry
     one-center paw contrib.   =  -14417.98737670 Ry

     convergence has been achieved in  10 iterations

     Forces acting on atoms (cartesian axes, Ry/au):

     atom    1 type  1   force =    -0.00026713   -0.00006563    0.00105166
     atom    2 type  1   force =    -0.00037288   -0.00062817    0.00051269
     atom    3 type  1   force =    -0.00025561    0.00068395    0.00012219
     atom    4 type  1   force =     0.00062848    0.00019650   -0.00014561
     atom    5 type  1   force =     0.00023392    0.00045310   -0.00008117
     atom    6 type  1   force =     0.00009370    0.00034220   -0.00010223
     atom    7 type  1   force =    -0.00065920   -0.00047765    0.00070130
     atom    8 type  1   force =     0.00040361    0.00030169   -0.00035629
     atom    9 type  2   force =    -0.00009714   -0.00033174   -0.00122623
     atom   10 type  2   force =    -0.00040293   -0.00042120    0.00016108
     atom   11 type  2   force =     0.00003848    0.00022567    0.00007179
     atom   12 type  2   force =     0.00039577   -0.00082118    0.00084826
     atom   13 type  2   force =    -0.00001396   -0.00020920   -0.00044701
     atom   14 type  2   force =     0.00000730   -0.00048710   -0.00059930
     atom   15 type  2   force =    -0.00037712   -0.00083083   -0.00109948
     atom   16 type  2   force =    -0.00060054   -0.00097114    0.00105391
     atom   17 type  2   force =     0.00122659   -0.00057835   -0.00010240
     atom   18 type  2   force =     0.00180871    0.00013299   -0.00019812
     atom   19 type  2   force =    -0.00059221   -0.00020738    0.00043080
     atom   20 type  2   force =    -0.00089543    0.00002079   -0.00016619
     atom   21 type  2   force =    -0.00022609    0.00016492    0.00011227
     atom   22 type  2   force =     0.00052500   -0.00037737    0.00039141
     atom   23 type  2   force =    -0.00174474    0.00017458    0.00006558
     atom   24 type  2   force =    -0.00003924   -0.00010987   -0.00003820
     atom   25 type  2   force =    -0.00015298    0.00067888    0.00059205
     atom   26 type  2   force =     0.00077548    0.00063134   -0.00062639
     atom   27 type  2   force =     0.00033214   -0.00018992    0.00000967
     atom   28 type  2   force =     0.00104923   -0.00046015    0.00001894
     atom   29 type  2   force =    -0.00058458    0.00028322    0.00054977
     atom   30 type  2   force =    -0.00058962    0.00019432   -0.00051580
     atom   31 type  2   force =    -0.00047953    0.00010643   -0.00109853
     atom   32 type  2   force =     0.00041584    0.00070452   -0.00000756
     atom   33 type  3   force =     0.00016742    0.00050146   -0.00138494
     atom   34 type  3   force =     0.00048289   -0.00073911   -0.00031355
     atom   35 type  3   force =     0.00035378    0.00062808   -0.00045209
     atom   36 type  3   force =    -0.00092095   -0.00322210   -0.00102118
     atom   37 type  3   force =     0.00005667   -0.00066559    0.00045513
     atom   38 type  3   force =     0.00090144    0.00003023    0.00276883
     atom   39 type  3   force =    -0.00008667    0.00084022    0.00368603
     atom   40 type  3   force =    -0.00240737    0.00019843   -0.00205877
     atom   41 type  4   force =    -0.00119944    0.00198922    0.00029299
     atom   42 type  4   force =     0.00175656    0.00108458    0.00229662
     atom   43 type  4   force =    -0.00233633   -0.00040884    0.00047129
     atom   44 type  4   force =     0.00173499   -0.00208443    0.00130491
     atom   45 type  4   force =    -0.00114709    0.00168737   -0.00104545
     atom   46 type  4   force =    -0.00210442   -0.00028922   -0.00000855
     atom   47 type  4   force =    -0.00018377   -0.00015508   -0.00172744
     atom   48 type  4   force =     0.00007249    0.00066024    0.00082117
     atom   49 type  4   force =     0.00075620   -0.00057435    0.00033796
     atom   50 type  4   force =     0.00127134    0.00002132    0.00116601
     atom   51 type  4   force =    -0.00016438   -0.00161975    0.00049098
     atom   52 type  4   force =    -0.00103573    0.00400304    0.00022200
     atom   53 type  4   force =     0.00213730    0.00075209    0.00110268
     atom   54 type  4   force =     0.00011071   -0.00020269   -0.00106340
     atom   55 type  4   force =     0.00082159   -0.00082958   -0.00156103
     atom   56 type  4   force =     0.00313233   -0.00161272   -0.00002784
     atom   57 type  5   force =    -0.00053898   -0.00167580   -0.00000063
     atom   58 type  5   force =    -0.00057546   -0.00194599   -0.00105725
     atom   59 type  5   force =     0.00004888   -0.00067378    0.00065544
     atom   60 type  5   force =     0.00119178    0.00042760   -0.00042285
     atom   61 type  5   force =    -0.00075024   -0.00006050   -0.00013493
     atom   62 type  5   force =     0.00061685   -0.00016936   -0.00114643
     atom   63 type  5   force =    -0.00105226   -0.00072422   -0.00059117
     atom   64 type  5   force =     0.00027200   -0.00044189    0.00102254
     atom   65 type  5   force =     0.00031547    0.00092099   -0.00007989
     atom   66 type  5   force =    -0.00168389    0.00382600    0.00111713
     atom   67 type  5   force =     0.00068384   -0.00097081   -0.00179885
     atom   68 type  5   force =     0.00069365   -0.00066756   -0.00055632
     atom   69 type  5   force =     0.00026141   -0.00047779   -0.00031874
     atom   70 type  5   force =     0.00083093   -0.00165788   -0.00011549
     atom   71 type  5   force =     0.00158672   -0.00004682    0.00014357
     atom   72 type  5   force =    -0.00059273    0.00109636   -0.00038835
     atom   73 type  5   force =    -0.00008014   -0.00200577   -0.00087932
     atom   74 type  5   force =     0.00056170   -0.00149480   -0.00193214
     atom   75 type  5   force =    -0.00035522   -0.00010073    0.00087804
     atom   76 type  5   force =    -0.00141154    0.00240215   -0.00021884
     atom   77 type  5   force =    -0.00030632   -0.00015160   -0.00058979
     atom   78 type  5   force =    -0.00045081    0.00136596    0.00050377
     atom   79 type  5   force =    -0.00100309    0.00088697   -0.00035957
     atom   80 type  5   force =     0.00009541    0.00013718    0.00064808
     atom   81 type  5   force =    -0.00016003    0.00201403    0.00099889
     atom   82 type  5   force =    -0.00024453   -0.00032464   -0.00059755
     atom   83 type  5   force =     0.00030749    0.00110231    0.00048609
     atom   84 type  5   force =     0.00013741   -0.00151875    0.00061345
     atom   85 type  5   force =    -0.00081720   -0.00196529   -0.00002718
     atom   86 type  5   force =     0.00003322    0.00018786   -0.00017501
     atom   87 type  5   force =    -0.00065207    0.00112838    0.00099815
     atom   88 type  5   force =    -0.00053271    0.00025899    0.00005841
     atom   89 type  5   force =     0.00097019   -0.00054622    0.00055837
     atom   90 type  5   force =    -0.00066075    0.00005718   -0.00050862
     atom   91 type  5   force =     0.00141590    0.00102460   -0.00010500
     atom   92 type  5   force =    -0.00019175    0.00010558   -0.00043298
     atom   93 type  5   force =    -0.00011877    0.00112607    0.00027658
     atom   94 type  5   force =     0.00074425    0.00022073   -0.00113106
     atom   95 type  5   force =    -0.00050550    0.00089301    0.00015816
     atom   96 type  5   force =     0.00016396    0.00031716   -0.00018394

     Total force =     0.016592     Total SCF correction =     0.000050


     Computing stress (Cartesian axis) and pressure

          total   stress  (Ry/bohr**3)                   (kbar)     P=    0.48
   0.00000532  -0.00000055  -0.00000893          0.78     -0.08     -1.31
  -0.00000055   0.00000573   0.00000022         -0.08      0.84      0.03
  -0.00000893   0.00000022  -0.00000125         -1.31      0.03     -0.18


     number of scf cycles    =  21
     number of bfgs steps    =  20

     enthalpy old            =  -16707.4620800950 Ry
     enthalpy new            =  -16707.4623090368 Ry

     CASE: enthalpy_new < enthalpy_old

     new trust radius        =       0.0386423131 bohr
     new conv_thr            =       0.0000000023 Ry

     new unit-cell volume =  13962.96146 a.u.^3 (  2069.09739 Ang^3 )
     density =      4.06876 g/cm^3

CELL_PARAMETERS (alat= 23.71984200)
   1.012527305   0.000000000   0.000000000
   0.000000000   1.019412711   0.000000000
   0.000000000   0.000000000   1.013643817

ATOMIC_POSITIONS (crystal)
Pb      -0.012843777  -0.021928268   0.002930107
Pb       0.487219792  -0.020735794   0.002968200
Pb      -0.011723856   0.482141481   0.009582605
Pb       0.022561465  -0.017593967   0.509047769
Pb       0.486827440   0.480691902  -0.001897152
Pb       0.021874573   0.479613591   0.505953757
Pb       0.525298488  -0.018788920   0.504257286
Pb       0.519747340   0.484668218   0.502763533
I        0.236287508  -0.008639780  -0.034960518
I        0.736409075  -0.006938031   0.040317841
I        0.236392318   0.486945500   0.062851950
I        0.271260245  -0.026711586   0.522604563
I        0.736647092   0.487225736  -0.048505704
I        0.273754205   0.478591516   0.459602884
I        0.771576693  -0.012229364   0.480159137
I        0.774702631   0.462539287   0.536392402
I       -0.031512706   0.233682690   0.006820458
I        0.467256120   0.230488930   0.011180867
I       -0.027888767   0.732764760  -0.001139687
I        0.046005338   0.231835826   0.502300453
I        0.472476994   0.731031378  -0.000700596
I        0.018943385   0.731472941   0.509750269
I        0.534094545   0.231107194   0.504982147
I        0.544271569   0.731192529   0.510954788
I        0.033775031  -0.032069037   0.255002886
I        0.468713549  -0.030215975   0.255777885
I       -0.047778923   0.483597867   0.257337862
I       -0.041620114  -0.021793671   0.755291753
I        0.552510746   0.481128572   0.248812467
I        0.052359986   0.478358424   0.758308807
I        0.535625057  -0.024612378   0.757043374
I        0.455048430   0.468263528   0.749893214
C        0.239690328   0.252257662   0.254398153
C        0.759858918   0.254864288   0.274860232
C        0.247727992   0.740758164   0.284497982
C        0.259164825   0.250751908   0.735689024
C        0.752894984   0.793423534   0.253339828
C        0.253147936   0.776559091   0.745403007
C        0.740646097   0.254925208   0.754225753
C        0.756984492   0.748877038   0.737257629
N        0.199258499   0.201333295   0.174429810
N        0.688648811   0.226378503   0.205606988
N        0.161865305   0.686185256   0.267941807
N        0.188683509   0.233801298   0.809298072
N        0.663247721   0.744495524   0.238095983
N        0.171630410   0.736409350   0.794417104
N        0.705924819   0.205581532   0.837955930
N        0.686916320   0.736920994   0.812189653
N        0.313356877   0.215827220   0.316772638
N        0.846965876   0.203136877   0.294520878
N        0.341655205   0.713387579   0.251552338
N        0.340865342   0.190477326   0.717263246
N        0.845039425   0.748777495   0.265164039
N        0.331480279   0.721893366   0.706663640
N        0.806984321   0.216003637   0.685417534
N        0.836428321   0.685286389   0.721116349
H        0.211142852   0.331353915   0.269895144
H        0.745975875   0.326818832   0.319241538
H        0.240859189   0.813927261   0.328535013
H        0.248125679   0.319213602   0.685550910
H        0.750686724   0.878627010   0.256651340
H        0.256343276   0.861459639   0.737084802
H        0.713591280   0.335050811   0.741542949
H        0.748260704   0.815616494   0.684274090
H        0.222005820   0.127663674   0.153381005
H        0.697105289   0.160774482   0.159625007
H        0.162236484   0.616879759   0.227794172
H        0.193318169   0.171813369   0.860105820
H        0.654638875   0.664721437   0.236233709
H        0.158546300   0.657619605   0.800409841
H        0.726364659   0.130590196   0.856346432
H        0.690136747   0.675561874   0.864061441
H        0.141853282   0.235245459   0.129465804
H        0.623792259   0.272347657   0.195340637
H        0.093987074   0.708487272   0.303972823
H        0.127054959   0.284377838   0.817425051
H        0.597040407   0.788639402   0.230028996
H        0.114569679   0.783507863   0.824570506
H        0.654399153   0.241220134   0.888039313
H        0.626309459   0.788865135   0.818132516
H        0.346187339   0.143284257   0.307511663
H        0.866707009   0.135000232   0.257802887
H        0.354688654   0.647146325   0.208736854
H        0.357453416   0.125563173   0.760701371
H        0.857690406   0.669621334   0.262052166
H        0.338553630   0.642443616   0.715299130
H        0.839255966   0.142825589   0.692348077
H        0.849178293   0.620604712   0.766226377
H        0.339608437   0.260971487   0.377423776
H        0.898219429   0.228882109   0.350940486
H        0.402141968   0.764711820   0.261786556
H        0.393478996   0.209610740   0.659249000
H        0.909312365   0.796104314   0.273616245
H        0.390817079   0.758109687   0.666650951
H        0.828458998   0.260494302   0.622340073
H        0.887628655   0.699167869   0.660515520



     Writing output data file FAPbI83_vcrelax5.save/
     NEW-OLD atomic charge density approx. for the potential
     extrapolated charge  432.22386, renormalised to  432.00000

     total cpu time spent up to now is   546032.1 secs

     Self-consistent Calculation

     iteration #  1     ecut=   120.00 Ry     beta= 0.70
     Davidson diagonalization with overlap
     ethr =  1.00E-06,  avg # of iterations =  5.0

     total cpu time spent up to now is   549838.7 secs

     total energy              =  -16707.46211641 Ry
     Harris-Foulkes estimate   =  -16707.09335680 Ry
     estimated scf accuracy    <       0.00095810 Ry

     iteration #  2     ecut=   120.00 Ry     beta= 0.70
     Davidson diagonalization with overlap
