
     Program PWSCF v.6.4 starts on  8Jun2020 at 18:42:36 

     This program is part of the open-source Quantum ESPRESSO suite
     for quantum simulation of materials; please cite
         "P. Giannozzi et al., J. Phys.:Condens. Matter 21 395502 (2009);
         "P. Giannozzi et al., J. Phys.:Condens. Matter 29 465901 (2017);
          URL http://www.quantum-espresso.org", 
     in publications or presentations arising from this work. More details at
     http://www.quantum-espresso.org/quote

     Parallel version (MPI), running on    32 processors

     MPI processes distributed on     1 nodes
     R & G space division:  proc/nbgrp/npool/nimage =      32
     Waiting for input...
     Reading input from standard input
     Message from routine read_cards :
     DEPRECATED: no units specified in CELL_PARAMETERS card

     Current dimensions of program PWSCF are:
     Max number of different atomic species (ntypx) = 10
     Max number of k-points (npk) =  40000
     Max angular momentum in pseudopotentials (lmaxx) =  3
               file Pb.pbe-dn-kjpaw_psl.1.0.0.UPF: wavefunction(s)  6S 6P 5D renormalized
               file I.pbe-n-kjpaw_psl.1.0.0.UPF: wavefunction(s)  5S renormalized
               file C.pbe-n-kjpaw_psl.1.0.0.UPF: wavefunction(s)  2S 2P renormalized
               file N.pbe-n-kjpaw_psl.1.0.0.UPF: wavefunction(s)  2S renormalized
               file H.pbe-kjpaw_psl.1.0.0.UPF: wavefunction(s)  1S renormalized

     --------------------------------------------
     Parameters for DFT-D3 Dispersion Correction:
     --------------------------------------------
       Reference C6 values for interpolation: 

         atom   Coordination number   C6
         H          0.912             6.05
         H          0.000            15.18
         C          0.000            98.23
         C          0.987            86.49
         C          1.998            58.72
         C          2.999            51.56
         C          3.984            36.41
         N          0.000            50.54
         N          0.994            44.25
         N          2.014            39.35
         N          2.990            31.16
         I          0.000           703.93
         I          0.997           717.00
         Pb         0.000          1477.63
         Pb         0.938          1266.00
         Pb         1.936          1088.91
         Pb         2.908          1048.37
         Pb         3.910           910.57

       Values used:

         atom   Coordination number  R0_AB[au]  C6      C8
         Pb         4.796            4.041    910.57 144158.42
         Pb         4.841            4.041    910.57 144158.33
         Pb         4.703            4.041    910.57 144158.77
         Pb         4.822            4.041    910.57 144158.37
         Pb         4.679            4.041    910.58 144158.90
         Pb         4.757            4.041    910.57 144158.54
         Pb         4.843            4.041    910.57 144158.33
         Pb         4.715            4.041    910.57 144158.71
         I          1.932            3.532    717.00  65855.99
         I          1.973            3.532    717.00  65856.00
         I          1.818            3.532    717.00  65855.97
         I          1.935            3.532    717.00  65855.99
         I          1.849            3.532    717.00  65855.98
         I          1.887            3.532    717.00  65855.99
         I          1.980            3.532    717.00  65856.00
         I          1.919            3.532    717.00  65855.99
         I          1.883            3.532    717.00  65855.99
         I          1.888            3.532    717.00  65855.99
         I          1.949            3.532    717.00  65855.99
         I          1.962            3.532    717.00  65856.00
         I          1.930            3.532    717.00  65855.99
         I          1.988            3.532    717.00  65856.00
         I          1.938            3.532    717.00  65855.99
         I          1.934            3.532    717.00  65855.99
         I          1.900            3.532    717.00  65855.99
         I          1.961            3.532    717.00  65856.00
         I          1.939            3.532    717.00  65855.99
         I          1.965            3.532    717.00  65856.00
         I          1.844            3.532    717.00  65855.98
         I          1.865            3.532    717.00  65855.98
         I          1.983            3.532    717.00  65856.00
         I          1.919            3.532    717.00  65855.99
         C          3.068            2.750     51.06   1476.71
         C          3.069            2.750     51.05   1476.46
         C          3.068            2.750     51.06   1476.69
         C          3.072            2.750     51.04   1476.11
         C          3.079            2.750     51.00   1475.02
         C          3.069            2.750     51.05   1476.54
         C          3.069            2.750     51.05   1476.47
         C          3.069            2.750     51.05   1476.57
         N          3.102            2.478     31.23    689.03
         N          3.098            2.478     31.24    689.08
         N          3.114            2.478     31.23    688.90
         N          3.101            2.478     31.23    689.05
         N          3.100            2.478     31.23    689.06
         N          3.101            2.478     31.23    689.05
         N          3.102            2.478     31.23    689.04
         N          3.107            2.478     31.23    688.97
         N          3.098            2.478     31.24    689.09
         N          3.105            2.478     31.23    689.00
         N          3.106            2.478     31.23    688.99
         N          3.106            2.478     31.23    688.99
         N          3.105            2.478     31.23    689.00
         N          3.099            2.478     31.23    689.07
         N          3.101            2.478     31.23    689.05
         N          3.109            2.478     31.23    688.96
         H          1.019            2.062      6.16     74.52
         H          1.019            2.062      6.16     74.52
         H          1.016            2.062      6.17     74.55
         H          1.017            2.062      6.17     74.55
         H          1.024            2.062      6.16     74.47
         H          1.021            2.062      6.16     74.50
         H          1.019            2.062      6.16     74.52
         H          1.015            2.062      6.17     74.56
         H          1.026            2.062      6.16     74.45
         H          1.057            2.062      6.14     74.20
         H          1.042            2.062      6.15     74.31
         H          1.053            2.062      6.14     74.23
         H          1.054            2.062      6.14     74.22
         H          1.050            2.062      6.14     74.25
         H          1.030            2.062      6.16     74.42
         H          1.052            2.062      6.14     74.24
         H          1.064            2.062      6.13     74.15
         H          1.037            2.062      6.15     74.36
         H          1.046            2.062      6.15     74.29
         H          1.048            2.062      6.14     74.26
         H          1.038            2.062      6.15     74.35
         H          1.032            2.062      6.15     74.40
         H          1.041            2.062      6.15     74.32
         H          1.051            2.062      6.14     74.24
         H          1.039            2.062      6.15     74.34
         H          1.025            2.062      6.16     74.46
         H          1.026            2.062      6.16     74.46
         H          1.028            2.062      6.16     74.44
         H          1.058            2.062      6.14     74.19
         H          1.052            2.062      6.14     74.24
         H          1.048            2.062      6.14     74.27
         H          1.024            2.062      6.16     74.47
         H          1.035            2.062      6.15     74.37
         H          1.064            2.062      6.13     74.15
         H          1.046            2.062      6.14     74.28
         H          1.072            2.062      6.13     74.09
         H          1.054            2.062      6.14     74.22
         H          1.043            2.062      6.15     74.31
         H          1.040            2.062      6.15     74.33
         H          1.094            2.062      6.12     73.96

         Molecular C6 ( Ry / a.u.^6 ) =   1270639.15


     Subspace diagonalization in iterative solution of the eigenvalue problem:
     a serial algorithm will be used


     Parallelization info
     --------------------
     sticks:   dense  smooth     PW     G-vecs:    dense   smooth      PW
     Min         696     696    179                77714    77714   10171
     Max         697     697    180                77717    77717   10176
     Sum       22279   22279   5737              2486909  2486909  325517



     bravais-lattice index     =            0
     lattice parameter (alat)  =      23.7198  a.u.
     unit-cell volume          =   14002.3926 (a.u.)^3
     number of atoms/cell      =           96
     number of atomic types    =            5
     number of electrons       =       432.00
     number of Kohn-Sham states=          216
     kinetic-energy cutoff     =     120.0000  Ry
     charge density cutoff     =     480.0000  Ry
     convergence threshold     =      1.0E-07
     mixing beta               =       0.7000
     number of iterations used =            8  plain     mixing
     Exchange-correlation      = SLA PW PBX PBC ( 1  4  3  4 0 0)
     nstep                     =          100


     celldm(1)=  23.719842  celldm(2)=   0.000000  celldm(3)=   0.000000
     celldm(4)=   0.000000  celldm(5)=   0.000000  celldm(6)=   0.000000

     crystal axes: (cart. coord. in units of alat)
               a(1) = (   1.013451   0.000000   0.000000 )  
               a(2) = (   0.000000   1.023093   0.000000 )  
               a(3) = (   0.000000   0.000000   1.011927 )  

     reciprocal axes: (cart. coord. in units 2 pi/alat)
               b(1) = (  0.986728  0.000000  0.000000 )  
               b(2) = (  0.000000  0.977428  0.000000 )  
               b(3) = (  0.000000  0.000000  0.988214 )  


     PseudoPot. # 1 for Pb read from file:
     ../Pseudopotential/Pb.pbe-dn-kjpaw_psl.1.0.0.UPF
     MD5 check sum: 684fc8fbce61a260853528575e4d9ab7
     Pseudo is Projector augmented-wave + core cor, Zval = 14.0
     Generated using "atomic" code by A. Dal Corso v.6.3
     Shape of augmentation charge: PSQ
     Using radial grid of 1281 points,  6 beta functions with: 
                l(1) =   0
                l(2) =   0
                l(3) =   1
                l(4) =   1
                l(5) =   2
                l(6) =   2
     Q(r) pseudized with 0 coefficients 


     PseudoPot. # 2 for I  read from file:
     ../Pseudopotential/I.pbe-n-kjpaw_psl.1.0.0.UPF
     MD5 check sum: cd3d296c3308a581e1559a0c8a554cb5
     Pseudo is Projector augmented-wave + core cor, Zval =  7.0
     Generated using "atomic" code by A. Dal Corso v.6.3
     Shape of augmentation charge: PSQ
     Using radial grid of 1247 points,  6 beta functions with: 
                l(1) =   0
                l(2) =   0
                l(3) =   1
                l(4) =   1
                l(5) =   2
                l(6) =   2
     Q(r) pseudized with 0 coefficients 


     PseudoPot. # 3 for C  read from file:
     ../Pseudopotential/C.pbe-n-kjpaw_psl.1.0.0.UPF
     MD5 check sum: 5f16ad9a65e90284d1d834d4ab3b0f7d
     Pseudo is Projector augmented-wave + core cor, Zval =  4.0
     Generated using "atomic" code by A. Dal Corso v.6.3
     Shape of augmentation charge: PSQ
     Using radial grid of 1073 points,  4 beta functions with: 
                l(1) =   0
                l(2) =   0
                l(3) =   1
                l(4) =   1
     Q(r) pseudized with 0 coefficients 


     PseudoPot. # 4 for N  read from file:
     ../Pseudopotential/N.pbe-n-kjpaw_psl.1.0.0.UPF
     MD5 check sum: 14c48229446f9f2d411169a3abcbc3fa
     Pseudo is Projector augmented-wave + core cor, Zval =  5.0
     Generated using "atomic" code by A. Dal Corso v.6.3
     Shape of augmentation charge: PSQ
     Using radial grid of 1085 points,  4 beta functions with: 
                l(1) =   0
                l(2) =   0
                l(3) =   1
                l(4) =   1
     Q(r) pseudized with 0 coefficients 


     PseudoPot. # 5 for H  read from file:
     ../Pseudopotential/H.pbe-kjpaw_psl.1.0.0.UPF
     MD5 check sum: d81a744832360e4a8af0b0b5b123bc2a
     Pseudo is Projector augmented-wave, Zval =  1.0
     Generated using "atomic" code by A. Dal Corso v.6.3MaX
     Shape of augmentation charge: PSQ
     Using radial grid of  929 points,  2 beta functions with: 
                l(1) =   0
                l(2) =   0
     Q(r) pseudized with 0 coefficients 


     atomic species   valence    mass     pseudopotential
        Pb            14.00   207.97600     Pb( 1.00)
        I              7.00   126.90400     I ( 1.00)
        C              4.00    12.00000     C ( 1.00)
        N              5.00    14.00300     N ( 1.00)
        H              1.00     1.00700     H ( 1.00)

     No symmetry found



   Cartesian axes

     site n.     atom                  positions (alat units)
         1           Pb  tau(   1) = (  -0.0133748  -0.0224489   0.0039922  )
         2           Pb  tau(   2) = (   0.4929607  -0.0217622   0.0034860  )
         3           Pb  tau(   3) = (  -0.0121424   0.4940137   0.0097884  )
         4           Pb  tau(   4) = (   0.0231011  -0.0175742   0.5153559  )
         5           Pb  tau(   5) = (   0.4936398   0.4921458  -0.0021658  )
         6           Pb  tau(   6) = (   0.0223189   0.4911418   0.5119437  )
         7           Pb  tau(   7) = (   0.5321509  -0.0196333   0.5111581  )
         8           Pb  tau(   8) = (   0.5273604   0.4961005   0.5083761  )
         9           I   tau(   9) = (   0.2392601  -0.0092027  -0.0371836  )
        10           I   tau(  10) = (   0.7459586  -0.0076547   0.0408512  )
        11           I   tau(  11) = (   0.2395190   0.4986569   0.0635963  )
        12           I   tau(  12) = (   0.2751755  -0.0286785   0.5301027  )
        13           I   tau(  13) = (   0.7466025   0.4981810  -0.0497445  )
        14           I   tau(  14) = (   0.2769641   0.4888760   0.4642580  )
        15           I   tau(  15) = (   0.7816791  -0.0138197   0.4843433  )
        16           I   tau(  16) = (   0.7846129   0.4718042   0.5442929  )
        17           I   tau(  17) = (  -0.0300483   0.2385149   0.0067163  )
        18           I   tau(  18) = (   0.4765725   0.2361399   0.0110659  )
        19           I   tau(  19) = (  -0.0292250   0.7492951  -0.0004010  )
        20           I   tau(  20) = (   0.0452243   0.2370786   0.5081256  )
        21           I   tau(  21) = (   0.4784997   0.7481705  -0.0005439  )
        22           I   tau(  22) = (   0.0201441   0.7480089   0.5163587  )
        23           I   tau(  23) = (   0.5384100   0.2363403   0.5110703  )
        24           I   tau(  24) = (   0.5514809   0.7480917   0.5169286  )
        25           I   tau(  25) = (   0.0340692  -0.0318762   0.2587395  )
        26           I   tau(  26) = (   0.4760316  -0.0301573   0.2577809  )
        27           I   tau(  27) = (  -0.0481339   0.4945306   0.2602655  )
        28           I   tau(  28) = (  -0.0405261  -0.0229559   0.7646744  )
        29           I   tau(  29) = (   0.5591898   0.4928508   0.2522922  )
        30           I   tau(  30) = (   0.0522338   0.4895629   0.7668371  )
        31           I   tau(  31) = (   0.5421017  -0.0251254   0.7650421  )
        32           I   tau(  32) = (   0.4617849   0.4802738   0.7591326  )
        33           C   tau(  33) = (   0.2427671   0.2582243   0.2573793  )
        34           C   tau(  34) = (   0.7703951   0.2605004   0.2784146  )
        35           C   tau(  35) = (   0.2509151   0.7573061   0.2881651  )
        36           C   tau(  36) = (   0.2626133   0.2561755   0.7443977  )
        37           C   tau(  37) = (   0.7628996   0.8114935   0.2563985  )
        38           C   tau(  38) = (   0.2567927   0.7941079   0.7545342  )
        39           C   tau(  39) = (   0.7502818   0.2609606   0.7633939  )
        40           C   tau(  40) = (   0.7671899   0.7659309   0.7458519  )
        41           N   tau(  41) = (   0.2019770   0.2061325   0.1763014  )
        42           N   tau(  42) = (   0.6980477   0.2320537   0.2082192  )
        43           N   tau(  43) = (   0.1640696   0.7017201   0.2708220  )
        44           N   tau(  44) = (   0.1912545   0.2388094   0.8189935  )
        45           N   tau(  45) = (   0.6722976   0.7617256   0.2400733  )
        46           N   tau(  46) = (   0.1740637   0.7532510   0.8039164  )
        47           N   tau(  47) = (   0.7152901   0.2103956   0.8480359  )
        48           N   tau(  48) = (   0.6962395   0.7543006   0.8218689  )
        49           N   tau(  49) = (   0.3176578   0.2214747   0.3205921  )
        50           N   tau(  50) = (   0.8585160   0.2076361   0.2981753  )
        51           N   tau(  51) = (   0.3462727   0.7298997   0.2551183  )
        52           N   tau(  52) = (   0.3456252   0.1952327   0.7260125  )
        53           N   tau(  53) = (   0.8561370   0.7660591   0.2690856  )
        54           N   tau(  54) = (   0.3359227   0.7384917   0.7148303  )
        55           N   tau(  55) = (   0.8178326   0.2217094   0.6939409  )
        56           N   tau(  56) = (   0.8476624   0.7011268   0.7296782  )
        57           H   tau(  57) = (   0.2131841   0.3385183   0.2733397  )
        58           H   tau(  58) = (   0.7563144   0.3335348   0.3236978  )
        59           H   tau(  59) = (   0.2437243   0.8315029   0.3333310  )
        60           H   tau(  60) = (   0.2517816   0.3260636   0.6937618  )
        61           H   tau(  61) = (   0.7604901   0.8982598   0.2598459  )
        62           H   tau(  62) = (   0.2600958   0.8805547   0.7459034  )
        63           H   tau(  63) = (   0.7220206   0.3421945   0.7499642  )
        64           H   tau(  64) = (   0.7586942   0.8339805   0.6921957  )
        65           H   tau(  65) = (   0.2257688   0.1313496   0.1549855  )
        66           H   tau(  66) = (   0.7058885   0.1655712   0.1612683  )
        67           H   tau(  67) = (   0.1647263   0.6315817   0.2292055  )
        68           H   tau(  68) = (   0.1960189   0.1752335   0.8699494  )
        69           H   tau(  69) = (   0.6637066   0.6804679   0.2384076  )
        70           H   tau(  70) = (   0.1610398   0.6728890   0.8100169  )
        71           H   tau(  71) = (   0.7375701   0.1345062   0.8670049  )
        72           H   tau(  72) = (   0.6989445   0.6918221   0.8744957  )
        73           H   tau(  73) = (   0.1432150   0.2392802   0.1303346  )
        74           H   tau(  74) = (   0.6328123   0.2792372   0.1968989  )
        75           H   tau(  75) = (   0.0955754   0.7239380   0.3081750  )
        76           H   tau(  76) = (   0.1293595   0.2910065   0.8270486  )
        77           H   tau(  77) = (   0.6054200   0.8069650   0.2317738  )
        78           H   tau(  78) = (   0.1166508   0.8016624   0.8345859  )
        79           H   tau(  79) = (   0.6622552   0.2464273   0.8980915  )
        80           H   tau(  80) = (   0.6351747   0.8075688   0.8280563  )
        81           H   tau(  81) = (   0.3511466   0.1477409   0.3114493  )
        82           H   tau(  82) = (   0.8783055   0.1382576   0.2607411  )
        83           H   tau(  83) = (   0.3598209   0.6626143   0.2115488  )
        84           H   tau(  84) = (   0.3620087   0.1286203   0.7695918  )
        85           H   tau(  85) = (   0.8687285   0.6853655   0.2656562  )
        86           H   tau(  86) = (   0.3430552   0.6575361   0.7234935  )
        87           H   tau(  87) = (   0.8504023   0.1472143   0.7014465  )
        88           H   tau(  88) = (   0.8602636   0.6351001   0.7753760  )
        89           H   tau(  89) = (   0.3449077   0.2670092   0.3822121  )
        90           H   tau(  90) = (   0.9106566   0.2339132   0.3551645  )
        91           H   tau(  91) = (   0.4070914   0.7827965   0.2650239  )
        92           H   tau(  92) = (   0.3981684   0.2148971   0.6666757  )
        93           H   tau(  93) = (   0.9209023   0.8147184   0.2775756  )
        94           H   tau(  94) = (   0.3957381   0.7755665   0.6739818  )
        95           H   tau(  95) = (   0.8391457   0.2675084   0.6301965  )
        96           H   tau(  96) = (   0.8996985   0.7154287   0.6684062  )

     number of k points=    32
                       cart. coord. in units 2pi/alat
        k(    1) = (   0.1233410   0.1221785   0.1235267), wk =   0.0625000
        k(    2) = (   0.1233410   0.1221785   0.3705802), wk =   0.0625000
        k(    3) = (   0.1233410   0.3665355   0.1235267), wk =   0.0625000
        k(    4) = (   0.1233410   0.3665355   0.3705802), wk =   0.0625000
        k(    5) = (   0.3700229   0.1221785   0.1235267), wk =   0.0625000
        k(    6) = (   0.3700229   0.1221785   0.3705802), wk =   0.0625000
        k(    7) = (   0.3700229   0.3665355   0.1235267), wk =   0.0625000
        k(    8) = (   0.3700229   0.3665355   0.3705802), wk =   0.0625000
        k(    9) = (  -0.1233410  -0.1221785   0.1235267), wk =   0.0625000
        k(   10) = (  -0.1233410   0.1221785  -0.1235267), wk =   0.0625000
        k(   11) = (   0.1233410  -0.1221785  -0.1235267), wk =   0.0625000
        k(   12) = (  -0.1233410  -0.1221785   0.3705802), wk =   0.0625000
        k(   13) = (  -0.1233410   0.1221785  -0.3705802), wk =   0.0625000
        k(   14) = (   0.1233410  -0.1221785  -0.3705802), wk =   0.0625000
        k(   15) = (  -0.1233410  -0.3665355   0.1235267), wk =   0.0625000
        k(   16) = (  -0.1233410   0.3665355  -0.1235267), wk =   0.0625000
        k(   17) = (   0.1233410  -0.3665355  -0.1235267), wk =   0.0625000
        k(   18) = (  -0.1233410  -0.3665355   0.3705802), wk =   0.0625000
        k(   19) = (  -0.1233410   0.3665355  -0.3705802), wk =   0.0625000
        k(   20) = (   0.1233410  -0.3665355  -0.3705802), wk =   0.0625000
        k(   21) = (  -0.3700229  -0.1221785   0.1235267), wk =   0.0625000
        k(   22) = (  -0.3700229   0.1221785  -0.1235267), wk =   0.0625000
        k(   23) = (   0.3700229  -0.1221785  -0.1235267), wk =   0.0625000
        k(   24) = (  -0.3700229  -0.1221785   0.3705802), wk =   0.0625000
        k(   25) = (  -0.3700229   0.1221785  -0.3705802), wk =   0.0625000
        k(   26) = (   0.3700229  -0.1221785  -0.3705802), wk =   0.0625000
        k(   27) = (  -0.3700229  -0.3665355   0.1235267), wk =   0.0625000
        k(   28) = (  -0.3700229   0.3665355  -0.1235267), wk =   0.0625000
        k(   29) = (   0.3700229  -0.3665355  -0.1235267), wk =   0.0625000
        k(   30) = (  -0.3700229  -0.3665355   0.3705802), wk =   0.0625000
        k(   31) = (  -0.3700229   0.3665355  -0.3705802), wk =   0.0625000
        k(   32) = (   0.3700229  -0.3665355  -0.3705802), wk =   0.0625000

     Dense  grid:  2486909 G-vectors     FFT dimensions: ( 180, 180, 180)

     Estimated max dynamical RAM per process >       1.82 GB

     Estimated total dynamical RAM >      58.26 GB

     Initial potential from superposition of free atoms

     starting charge  431.97851, renormalised to  432.00000
     Starting wfcs are  304 randomized atomic wfcs
     Checking if some PAW data can be deallocated... 

     total cpu time spent up to now is      874.3 secs

     Self-consistent Calculation

     iteration #  1     ecut=   120.00 Ry     beta= 0.70
     Davidson diagonalization with overlap
     ethr =  1.00E-02,  avg # of iterations =  2.0

     total cpu time spent up to now is     2685.1 secs

     total energy              =  -16705.00758849 Ry
     Harris-Foulkes estimate   =  -16709.28386745 Ry
     estimated scf accuracy    <       6.77217768 Ry

     iteration #  2     ecut=   120.00 Ry     beta= 0.70
     Davidson diagonalization with overlap
     ethr =  1.57E-03,  avg # of iterations =  4.0

     total cpu time spent up to now is     5012.6 secs

     total energy              =  -16706.54687751 Ry
     Harris-Foulkes estimate   =  -16708.63897892 Ry
     estimated scf accuracy    <       3.90037578 Ry

     iteration #  3     ecut=   120.00 Ry     beta= 0.70
     Davidson diagonalization with overlap
     ethr =  9.03E-04,  avg # of iterations =  3.0

     total cpu time spent up to now is     6786.4 secs

     total energy              =  -16707.41157848 Ry
     Harris-Foulkes estimate   =  -16707.47923375 Ry
     estimated scf accuracy    <       0.14684705 Ry

     iteration #  4     ecut=   120.00 Ry     beta= 0.70
     Davidson diagonalization with overlap
     ethr =  3.40E-05,  avg # of iterations =  4.0

     total cpu time spent up to now is     9313.5 secs

     total energy              =  -16707.45555560 Ry
     Harris-Foulkes estimate   =  -16707.47522549 Ry
     estimated scf accuracy    <       0.03918076 Ry

     iteration #  5     ecut=   120.00 Ry     beta= 0.70
     Davidson diagonalization with overlap
     ethr =  9.07E-06,  avg # of iterations =  3.0

     total cpu time spent up to now is    11338.6 secs

     total energy              =  -16707.46298613 Ry
     Harris-Foulkes estimate   =  -16707.46417097 Ry
     estimated scf accuracy    <       0.00220249 Ry

     iteration #  6     ecut=   120.00 Ry     beta= 0.70
     Davidson diagonalization with overlap
     ethr =  5.10E-07,  avg # of iterations =  3.9

     total cpu time spent up to now is    13725.9 secs

     total energy              =  -16707.46359929 Ry
     Harris-Foulkes estimate   =  -16707.46416201 Ry
     estimated scf accuracy    <       0.00124503 Ry

     iteration #  7     ecut=   120.00 Ry     beta= 0.70
     Davidson diagonalization with overlap
     ethr =  2.88E-07,  avg # of iterations =  3.9

     total cpu time spent up to now is    15542.2 secs

     total energy              =  -16707.46386628 Ry
     Harris-Foulkes estimate   =  -16707.46390496 Ry
     estimated scf accuracy    <       0.00008756 Ry

     iteration #  8     ecut=   120.00 Ry     beta= 0.70
     Davidson diagonalization with overlap
     ethr =  2.03E-08,  avg # of iterations =  4.0

     total cpu time spent up to now is    17631.9 secs

     total energy              =  -16707.46389025 Ry
     Harris-Foulkes estimate   =  -16707.46389955 Ry
     estimated scf accuracy    <       0.00002025 Ry

     iteration #  9     ecut=   120.00 Ry     beta= 0.70
     Davidson diagonalization with overlap
     ethr =  4.69E-09,  avg # of iterations =  3.7

     total cpu time spent up to now is    19545.3 secs

     total energy              =  -16707.46389466 Ry
     Harris-Foulkes estimate   =  -16707.46389553 Ry
     estimated scf accuracy    <       0.00000183 Ry

     iteration # 10     ecut=   120.00 Ry     beta= 0.70
     Davidson diagonalization with overlap
     ethr =  4.24E-10,  avg # of iterations =  4.0

     total cpu time spent up to now is    21500.7 secs

     total energy              =  -16707.46389512 Ry
     Harris-Foulkes estimate   =  -16707.46389524 Ry
     estimated scf accuracy    <       0.00000027 Ry

     iteration # 11     ecut=   120.00 Ry     beta= 0.70
     Davidson diagonalization with overlap
     ethr =  6.26E-11,  avg # of iterations =  4.0

     total cpu time spent up to now is    23517.1 secs

     End of self-consistent calculation

          k = 0.1233 0.1222 0.1235 (310825 PWs)   bands (ev):

   -18.0054 -17.9218 -17.8885 -17.8858 -17.8761 -17.8743 -17.8608 -17.8104
   -15.7817 -15.7199 -15.7049 -15.6669 -15.6594 -15.6526 -15.6269 -15.5622
   -14.3492 -14.3338 -14.3158 -14.3112 -14.3041 -14.3019 -14.2986 -14.2918
   -14.2804 -14.2793 -14.2750 -14.2734 -14.2731 -14.2675 -14.2668 -14.2662
   -14.2573 -14.2569 -14.2546 -14.2512 -14.2471 -14.2469 -14.2450 -14.2401
   -14.2350 -14.2349 -14.2328 -14.2305 -14.2302 -14.2294 -14.2281 -14.2249
   -14.2243 -14.2217 -14.2201 -14.2160 -14.2124 -14.1982 -14.1954 -14.1928
    -9.8427  -9.7910  -9.7452  -9.7152  -9.6699  -9.6570  -9.6361  -9.5992
    -9.5305  -9.4858  -9.4323  -9.3882  -9.3755  -9.3247  -9.2950  -9.2555
    -9.2429  -9.2234  -9.1824  -9.1539  -9.1113  -9.0980  -9.0785  -9.0577
    -9.0410  -9.0263  -9.0174  -9.0000  -8.9726  -8.9358  -8.8954  -8.8690
    -7.8526  -7.7308  -7.7112  -7.7018  -7.6892  -7.6792  -7.6656  -7.6331
    -7.1295  -7.1251  -7.1073  -7.0621  -7.0528  -7.0477  -7.0228  -6.9379
    -5.8899  -5.5526  -5.4758  -5.4449  -5.4130  -5.3874  -5.3535  -5.3481
    -5.3429  -5.3357  -5.3173  -5.2805  -5.0491  -5.0050  -4.9928  -4.6040
    -3.9357  -3.8657  -3.8561  -3.8337  -3.8221  -3.8166  -3.8027  -3.7631
    -3.3543  -3.3301  -3.3070  -3.2881  -3.2842  -3.2695  -3.2610  -3.2082
    -0.9060  -0.8832  -0.8210  -0.7860  -0.7300  -0.7190  -0.6896  -0.6742
    -0.6208  -0.5917  -0.5427  -0.4967  -0.2221  -0.1743  -0.1505  -0.1319
    -0.1041  -0.0880  -0.0415   0.0026   0.3038   0.3919   0.4335   0.4683
     0.4831   0.5031   0.5237   0.5482   0.5736   0.6286   0.6658   0.7299
     0.7573   0.7992   0.8371   0.8523   0.8618   0.9025   0.9348   0.9522
     0.9775   1.0052   1.0138   1.0342   1.0517   1.0694   1.0798   1.0903
     1.1097   1.1294   1.1474   1.1660   1.1908   1.2013   1.2228   1.2374
     1.2560   1.2721   1.2874   1.2972   1.3341   1.3474   1.3614   1.3988
     1.4168   1.4295   1.4454   1.4659   1.4992   1.5095   1.5652   1.5999
     1.6486   1.6689   1.7015   1.7480   1.7938   1.8252   1.8432   2.0921

          k = 0.1233 0.1222 0.3706 (310822 PWs)   bands (ev):

   -18.0054 -17.9218 -17.8885 -17.8857 -17.8761 -17.8743 -17.8608 -17.8104
   -15.7817 -15.7199 -15.7049 -15.6666 -15.6598 -15.6526 -15.6269 -15.5622
   -14.3490 -14.3337 -14.3156 -14.3112 -14.3039 -14.3019 -14.2986 -14.2915
   -14.2805 -14.2793 -14.2753 -14.2733 -14.2728 -14.2675 -14.2671 -14.2668
   -14.2573 -14.2569 -14.2543 -14.2512 -14.2469 -14.2468 -14.2450 -14.2401
   -14.2350 -14.2349 -14.2328 -14.2307 -14.2305 -14.2294 -14.2281 -14.2251
   -14.2243 -14.2217 -14.2201 -14.2160 -14.2124 -14.1982 -14.1954 -14.1928
    -9.8241  -9.7824  -9.7407  -9.7218  -9.6927  -9.6596  -9.6510  -9.6053
    -9.5250  -9.4736  -9.4349  -9.4014  -9.3676  -9.3174  -9.3047  -9.2902
    -9.2389  -9.2150  -9.1753  -9.1285  -9.1016  -9.0872  -9.0697  -9.0540
    -9.0406  -9.0292  -9.0120  -8.9995  -8.9829  -8.9504  -8.9023  -8.8695
    -7.8527  -7.7310  -7.7099  -7.6998  -7.6902  -7.6818  -7.6659  -7.6331
    -7.1295  -7.1251  -7.1074  -7.0609  -7.0539  -7.0479  -7.0228  -6.9379
    -5.7762  -5.6059  -5.5410  -5.3893  -5.3696  -5.3599  -5.3477  -5.3429
    -5.3341  -5.3196  -5.2923  -5.2775  -5.1728  -5.1222  -4.9085  -4.7346
    -3.9351  -3.8628  -3.8533  -3.8383  -3.8217  -3.8150  -3.8067  -3.7631
    -3.3542  -3.3299  -3.3055  -3.2881  -3.2848  -3.2702  -3.2612  -3.2082
    -0.8674  -0.8069  -0.7391  -0.7283  -0.6842  -0.6329  -0.6147  -0.5624
    -0.4712  -0.4280  -0.3202  -0.2511  -0.1978  -0.1571  -0.1484  -0.1356
    -0.0945  -0.0720  -0.0420   0.0016   0.1292   0.2215   0.2730   0.3525
     0.3828   0.4020   0.4382   0.4907   0.5080   0.5329   0.5549   0.5879
     0.6264   0.6941   0.8260   0.8442   0.8751   0.8981   0.9138   0.9312
     0.9580   0.9650   0.9861   1.0121   1.0434   1.0523   1.0736   1.1171
     1.1356   1.1449   1.1570   1.1679   1.2048   1.2171   1.2373   1.2477
     1.2704   1.2821   1.3047   1.3192   1.3381   1.3574   1.3640   1.3812
     1.4122   1.4266   1.4335   1.4723   1.4923   1.5106   1.5245   1.5459
     1.5919   1.6495   1.6664   1.6738   1.7404   1.7557   1.8305   1.9499

          k = 0.1233 0.3665 0.1235 (310723 PWs)   bands (ev):

   -18.0054 -17.9218 -17.8885 -17.8858 -17.8761 -17.8743 -17.8608 -17.8104
   -15.7817 -15.7199 -15.7049 -15.6669 -15.6594 -15.6526 -15.6269 -15.5622
   -14.3492 -14.3336 -14.3158 -14.3112 -14.3038 -14.3019 -14.2986 -14.2909
   -14.2806 -14.2793 -14.2749 -14.2735 -14.2733 -14.2675 -14.2670 -14.2664
   -14.2574 -14.2569 -14.2547 -14.2508 -14.2471 -14.2469 -14.2450 -14.2401
   -14.2350 -14.2349 -14.2328 -14.2307 -14.2305 -14.2294 -14.2281 -14.2250
   -14.2243 -14.2217 -14.2201 -14.2160 -14.2124 -14.1982 -14.1954 -14.1928
    -9.8396  -9.7936  -9.7434  -9.7148  -9.6697  -9.6580  -9.6340  -9.6014
    -9.5291  -9.4650  -9.4254  -9.4050  -9.3663  -9.3489  -9.3086  -9.2949
    -9.2449  -9.2235  -9.1628  -9.1492  -9.1086  -9.0830  -9.0769  -9.0506
    -9.0286  -9.0231  -9.0127  -8.9905  -8.9645  -8.9408  -8.9024  -8.8914
    -7.8515  -7.7304  -7.7115  -7.7001  -7.6876  -7.6791  -7.6684  -7.6337
    -7.1286  -7.1257  -7.1074  -7.0622  -7.0528  -7.0472  -7.0235  -6.9380
    -5.7776  -5.5675  -5.5446  -5.3943  -5.3685  -5.3639  -5.3479  -5.3416
    -5.3361  -5.3251  -5.3122  -5.2737  -5.1528  -5.1272  -4.9258  -4.7472
    -3.9340  -3.8659  -3.8565  -3.8333  -3.8231  -3.8159  -3.8033  -3.7632
    -3.3544  -3.3296  -3.3066  -3.2883  -3.2838  -3.2699  -3.2618  -3.2084
    -0.9013  -0.8763  -0.7712  -0.7210  -0.6901  -0.6587  -0.5873  -0.5332
    -0.3887  -0.3411  -0.2915  -0.2118  -0.1867  -0.1589  -0.1371  -0.1241
    -0.1063  -0.0931  -0.0427  -0.0014   0.1914   0.2397   0.3100   0.3223
     0.3934   0.4620   0.4785   0.4905   0.5211   0.5322   0.5474   0.6225
     0.6417   0.7096   0.7353   0.7531   0.7932   0.8609   0.8905   0.9104
     0.9440   0.9671   0.9989   1.0168   1.0545   1.0641   1.0700   1.1053
     1.1146   1.1378   1.1707   1.1815   1.1967   1.2121   1.2393   1.2426
     1.2677   1.2929   1.3047   1.3131   1.3372   1.3574   1.3841   1.4041
     1.4228   1.4329   1.4424   1.4622   1.4804   1.4946   1.5268   1.5420
     1.5711   1.6067   1.6355   1.6520   1.6969   1.7121   1.8296   1.9034

          k = 0.1233 0.3665 0.3706 (310844 PWs)   bands (ev):

   -18.0054 -17.9218 -17.8885 -17.8857 -17.8761 -17.8743 -17.8608 -17.8104
   -15.7817 -15.7199 -15.7049 -15.6666 -15.6598 -15.6526 -15.6269 -15.5622
   -14.3490 -14.3336 -14.3156 -14.3112 -14.3035 -14.3019 -14.2986 -14.2905
   -14.2810 -14.2794 -14.2752 -14.2734 -14.2731 -14.2675 -14.2673 -14.2671
   -14.2574 -14.2569 -14.2544 -14.2508 -14.2469 -14.2468 -14.2450 -14.2401
   -14.2350 -14.2349 -14.2328 -14.2311 -14.2305 -14.2294 -14.2281 -14.2252
   -14.2243 -14.2217 -14.2201 -14.2160 -14.2124 -14.1982 -14.1954 -14.1928
    -9.8228  -9.7825  -9.7383  -9.7219  -9.6916  -9.6604  -9.6507  -9.6061
    -9.5254  -9.4550  -9.4252  -9.4093  -9.3823  -9.3329  -9.3222  -9.2987
    -9.2466  -9.2072  -9.1618  -9.1406  -9.1089  -9.0797  -9.0641  -9.0419
    -9.0283  -9.0200  -9.0102  -8.9971  -8.9758  -8.9371  -8.9119  -8.8941
    -7.8515  -7.7305  -7.7101  -7.6977  -7.6894  -7.6815  -7.6687  -7.6337
    -7.1286  -7.1257  -7.1074  -7.0611  -7.0538  -7.0473  -7.0235  -6.9380
    -5.6683  -5.5596  -5.4923  -5.4381  -5.3894  -5.3604  -5.3506  -5.3441
    -5.3389  -5.3279  -5.2929  -5.2399  -5.2293  -5.0622  -5.0375  -4.8749
    -3.9335  -3.8641  -3.8533  -3.8360  -3.8242  -3.8141  -3.8063  -3.7630
    -3.3544  -3.3295  -3.3056  -3.2876  -3.2849  -3.2706  -3.2620  -3.2085
    -0.8586  -0.7426  -0.6526  -0.5949  -0.5079  -0.4618  -0.3677  -0.3545
    -0.3129  -0.2943  -0.2575  -0.2471  -0.1888  -0.1507  -0.1374  -0.1084
    -0.0971  -0.0759  -0.0443   0.0015   0.1041   0.2006   0.2144   0.2492
     0.2851   0.3173   0.3408   0.3590   0.4140   0.4942   0.5334   0.5585
     0.6128   0.6487   0.6984   0.7517   0.7644   0.8120   0.8203   0.8443
     0.8661   0.9125   0.9366   0.9561   0.9905   1.0244   1.0497   1.0816
     1.1210   1.1460   1.1560   1.1703   1.2007   1.2251   1.2351   1.2681
     1.2869   1.3168   1.3255   1.3354   1.3496   1.3692   1.3874   1.4015
     1.4107   1.4184   1.4544   1.4594   1.4742   1.4839   1.4972   1.5386
     1.5611   1.5835   1.5877   1.6330   1.6641   1.6828   1.7077   1.7889

          k = 0.3700 0.1222 0.1235 (310843 PWs)   bands (ev):

   -18.0053 -17.9218 -17.8886 -17.8857 -17.8761 -17.8743 -17.8608 -17.8104
   -15.7798 -15.7218 -15.7049 -15.6669 -15.6594 -15.6526 -15.6269 -15.5622
   -14.3489 -14.3335 -14.3164 -14.3112 -14.3042 -14.3019 -14.2986 -14.2918
   -14.2803 -14.2793 -14.2747 -14.2734 -14.2729 -14.2675 -14.2663 -14.2661
   -14.2569 -14.2561 -14.2547 -14.2520 -14.2481 -14.2469 -14.2450 -14.2401
   -14.2350 -14.2349 -14.2328 -14.2305 -14.2302 -14.2294 -14.2281 -14.2252
   -14.2243 -14.2217 -14.2201 -14.2160 -14.2124 -14.1982 -14.1954 -14.1928
    -9.8178  -9.7692  -9.7610  -9.7129  -9.6976  -9.6657  -9.6421  -9.6061
    -9.5369  -9.4869  -9.4191  -9.3860  -9.3640  -9.3374  -9.3051  -9.2591
    -9.2362  -9.2175  -9.1803  -9.1684  -9.1121  -9.0980  -9.0847  -9.0589
    -9.0282  -9.0158  -8.9930  -8.9793  -8.9585  -8.9432  -8.9162  -8.8919
    -7.8498  -7.7363  -7.7120  -7.7009  -7.6903  -7.6797  -7.6665  -7.6334
    -7.1291  -7.1244  -7.1061  -7.0621  -7.0526  -7.0476  -7.0227  -6.9380
    -5.7719  -5.5934  -5.5155  -5.3940  -5.3744  -5.3671  -5.3538  -5.3475
    -5.3361  -5.3164  -5.2961  -5.2767  -5.1772  -5.1325  -4.9026  -4.7380
    -3.9353  -3.8650  -3.8563  -3.8335  -3.8206  -3.8187  -3.8036  -3.7634
    -3.3541  -3.3283  -3.3066  -3.2875  -3.2833  -3.2701  -3.2628  -3.2104
    -0.8902  -0.8100  -0.7973  -0.7487  -0.6928  -0.6760  -0.6273  -0.5941
    -0.4531  -0.3426  -0.2868  -0.2404  -0.1750  -0.1613  -0.1427  -0.1116
    -0.0966  -0.0474  -0.0350  -0.0043   0.1175   0.2385   0.3102   0.3657
     0.4047   0.4332   0.4525   0.5066   0.5138   0.5389   0.5695   0.6289
     0.6630   0.7102   0.7799   0.8100   0.8233   0.8585   0.8970   0.9111
     0.9496   0.9757   0.9966   1.0215   1.0321   1.0501   1.0744   1.1009
     1.1196   1.1325   1.1503   1.1762   1.1980   1.2170   1.2353   1.2488
     1.2659   1.2937   1.3081   1.3303   1.3487   1.3535   1.3842   1.4021
     1.4271   1.4430   1.4631   1.4713   1.4844   1.5137   1.5501   1.5749
     1.5954   1.6107   1.6185   1.6541   1.6887   1.7222   1.8162   1.9001

          k = 0.3700 0.1222 0.3706 (310840 PWs)   bands (ev):

   -18.0053 -17.9218 -17.8886 -17.8857 -17.8761 -17.8743 -17.8608 -17.8104
   -15.7798 -15.7218 -15.7049 -15.6665 -15.6598 -15.6526 -15.6270 -15.5622
   -14.3487 -14.3334 -14.3162 -14.3112 -14.3039 -14.3019 -14.2986 -14.2915
   -14.2805 -14.2793 -14.2749 -14.2733 -14.2726 -14.2675 -14.2671 -14.2663
   -14.2569 -14.2561 -14.2545 -14.2521 -14.2478 -14.2469 -14.2450 -14.2401
   -14.2350 -14.2349 -14.2328 -14.2307 -14.2305 -14.2294 -14.2281 -14.2254
   -14.2243 -14.2217 -14.2201 -14.2160 -14.2124 -14.1982 -14.1954 -14.1928
    -9.8027  -9.7645  -9.7444  -9.7190  -9.6981  -9.6837  -9.6650  -9.6115
    -9.5209  -9.4754  -9.4422  -9.4114  -9.3562  -9.3238  -9.3109  -9.2865
    -9.2294  -9.2163  -9.1770  -9.1301  -9.1025  -9.0870  -9.0740  -9.0587
    -9.0405  -9.0079  -8.9933  -8.9785  -8.9656  -8.9543  -8.9224  -8.8948
    -7.8499  -7.7365  -7.7103  -7.6991  -7.6909  -7.6822  -7.6678  -7.6334
    -7.1291  -7.1243  -7.1061  -7.0609  -7.0537  -7.0477  -7.0226  -6.9380
    -5.6612  -5.5256  -5.4934  -5.4714  -5.3900  -5.3702  -5.3584  -5.3483
    -5.3434  -5.3198  -5.2995  -5.2776  -5.1982  -5.0465  -5.0224  -4.8678
    -3.9347  -3.8626  -3.8530  -3.8376  -3.8196  -3.8178  -3.8077  -3.7632
    -3.3541  -3.3281  -3.3061  -3.2870  -3.2840  -3.2701  -3.2626  -3.2103
    -0.7860  -0.7493  -0.6994  -0.6618  -0.5290  -0.4911  -0.4267  -0.3800
    -0.3442  -0.2932  -0.2613  -0.2084  -0.1753  -0.1669  -0.1244  -0.1104
    -0.0851  -0.0728  -0.0340  -0.0094   0.0910   0.1937   0.2143   0.2542
     0.2914   0.3081   0.3510   0.4010   0.4279   0.4699   0.5072   0.5300
     0.6509   0.7085   0.7279   0.7603   0.7808   0.8158   0.8297   0.8462
     0.9044   0.9243   0.9422   0.9613   0.9824   1.0253   1.0440   1.0761
     1.1079   1.1404   1.1635   1.1805   1.2096   1.2251   1.2405   1.2750
     1.2861   1.3078   1.3129   1.3409   1.3531   1.3600   1.3709   1.3998
     1.4169   1.4273   1.4531   1.4645   1.4807   1.5011   1.5213   1.5392
     1.5599   1.5675   1.6021   1.6499   1.6622   1.7183   1.7305   1.7740

          k = 0.3700 0.3665 0.1235 (310837 PWs)   bands (ev):

   -18.0053 -17.9218 -17.8886 -17.8857 -17.8761 -17.8743 -17.8608 -17.8104
   -15.7798 -15.7218 -15.7049 -15.6669 -15.6594 -15.6526 -15.6269 -15.5622
   -14.3489 -14.3333 -14.3164 -14.3112 -14.3039 -14.3019 -14.2986 -14.2909
   -14.2806 -14.2793 -14.2746 -14.2734 -14.2732 -14.2675 -14.2665 -14.2663
   -14.2569 -14.2562 -14.2549 -14.2516 -14.2481 -14.2469 -14.2450 -14.2401
   -14.2350 -14.2349 -14.2328 -14.2307 -14.2305 -14.2294 -14.2281 -14.2253
   -14.2243 -14.2217 -14.2201 -14.2160 -14.2124 -14.1982 -14.1954 -14.1928
    -9.8171  -9.7673  -9.7613  -9.7128  -9.6960  -9.6669  -9.6414  -9.6041
    -9.5353  -9.4751  -9.4187  -9.3950  -9.3681  -9.3534  -9.3058  -9.2875
    -9.2388  -9.2144  -9.1848  -9.1479  -9.1216  -9.0924  -9.0741  -9.0488
    -9.0231  -8.9934  -8.9890  -8.9678  -8.9640  -8.9516  -8.9205  -8.9125
    -7.8489  -7.7354  -7.7125  -7.7003  -7.6875  -7.6797  -7.6693  -7.6339
    -7.1285  -7.1250  -7.1059  -7.0622  -7.0527  -7.0469  -7.0235  -6.9380
    -5.6626  -5.5179  -5.4914  -5.4523  -5.3903  -5.3699  -5.3571  -5.3484
    -5.3425  -5.3178  -5.2843  -5.2634  -5.2261  -5.0693  -5.0338  -4.8782
    -3.9338  -3.8648  -3.8566  -3.8333  -3.8214  -3.8183  -3.8038  -3.7633
    -3.3543  -3.3279  -3.3063  -3.2880  -3.2833  -3.2693  -3.2641  -3.2105
    -0.8844  -0.7870  -0.7000  -0.6114  -0.5477  -0.4423  -0.3805  -0.3486
    -0.3168  -0.2706  -0.2279  -0.1972  -0.1592  -0.1323  -0.1230  -0.1116
    -0.0932  -0.0467  -0.0405  -0.0094   0.0516   0.1968   0.2250   0.2431
     0.3263   0.3479   0.3883   0.4369   0.4567   0.4767   0.5123   0.5382
     0.5837   0.6521   0.6974   0.7170   0.7719   0.8110   0.8476   0.8809
     0.9179   0.9312   0.9515   0.9729   0.9978   1.0271   1.0661   1.0889
     1.1025   1.1156   1.1405   1.1499   1.1726   1.2044   1.2241   1.2465
     1.2718   1.2867   1.2991   1.3127   1.3442   1.3546   1.3870   1.4032
     1.4115   1.4429   1.4548   1.4811   1.4928   1.5148   1.5275   1.5418
     1.5584   1.5880   1.5953   1.6094   1.6228   1.6479   1.6776   1.7141

          k = 0.3700 0.3665 0.3706 (310855 PWs)   bands (ev):

   -18.0053 -17.9218 -17.8886 -17.8857 -17.8761 -17.8743 -17.8608 -17.8104
   -15.7798 -15.7218 -15.7049 -15.6665 -15.6598 -15.6526 -15.6270 -15.5622
   -14.3487 -14.3332 -14.3162 -14.3112 -14.3036 -14.3019 -14.2986 -14.2905
   -14.2810 -14.2794 -14.2748 -14.2734 -14.2728 -14.2675 -14.2672 -14.2666
   -14.2569 -14.2563 -14.2546 -14.2516 -14.2478 -14.2469 -14.2450 -14.2401
   -14.2350 -14.2349 -14.2328 -14.2311 -14.2305 -14.2294 -14.2281 -14.2255
   -14.2243 -14.2217 -14.2201 -14.2160 -14.2124 -14.1982 -14.1954 -14.1928
    -9.8033  -9.7587  -9.7478  -9.7186  -9.6948  -9.6869  -9.6643  -9.6076
    -9.5243  -9.4569  -9.4341  -9.4066  -9.3913  -9.3392  -9.3284  -9.2841
    -9.2436  -9.2001  -9.1605  -9.1444  -9.1150  -9.0829  -9.0614  -9.0437
    -9.0279  -8.9984  -8.9834  -8.9760  -8.9683  -8.9532  -8.9294  -8.9147
    -7.8489  -7.7355  -7.7108  -7.6984  -7.6885  -7.6821  -7.6703  -7.6339
    -7.1285  -7.1249  -7.1059  -7.0610  -7.0537  -7.0470  -7.0234  -6.9380
    -5.5566  -5.5195  -5.4058  -5.3912  -5.3848  -5.3684  -5.3534  -5.3491
    -5.3369  -5.3238  -5.3081  -5.2788  -5.2056  -5.1675  -5.1508  -5.0043
    -3.9333  -3.8627  -3.8540  -3.8359  -3.8214  -3.8169  -3.8072  -3.7631
    -3.3543  -3.3278  -3.3060  -3.2876  -3.2838  -3.2692  -3.2641  -3.2105
    -0.5811  -0.5183  -0.4931  -0.4312  -0.4009  -0.3495  -0.3375  -0.3308
    -0.2922  -0.2539  -0.2438  -0.1915  -0.1602  -0.1517  -0.1168  -0.1035
    -0.0849  -0.0616  -0.0359  -0.0150   0.0487   0.1597   0.1795   0.1965
     0.2414   0.2639   0.2783   0.3003   0.3378   0.3726   0.4235   0.4774
     0.6245   0.6816   0.6975   0.7437   0.7720   0.7857   0.8080   0.8342
     0.8641   0.8806   0.8984   0.9166   0.9408   0.9760   0.9939   1.0113
     1.0573   1.0655   1.0796   1.1019   1.1190   1.1448   1.1778   1.1945
     1.2664   1.3010   1.3135   1.3303   1.3629   1.3737   1.3920   1.4067
     1.4160   1.4262   1.4490   1.4639   1.4868   1.5018   1.5146   1.5305
     1.5369   1.5610   1.5743   1.5893   1.6057   1.6245   1.6616   1.6772

          k =-0.1233-0.1222 0.1235 (310825 PWs)   bands (ev):

   -18.0054 -17.9218 -17.8885 -17.8858 -17.8761 -17.8743 -17.8608 -17.8104
   -15.7817 -15.7199 -15.7049 -15.6669 -15.6594 -15.6526 -15.6269 -15.5622
   -14.3492 -14.3338 -14.3158 -14.3112 -14.3041 -14.3019 -14.2986 -14.2918
   -14.2804 -14.2793 -14.2750 -14.2734 -14.2731 -14.2675 -14.2668 -14.2662
   -14.2573 -14.2569 -14.2546 -14.2512 -14.2471 -14.2469 -14.2450 -14.2401
   -14.2350 -14.2349 -14.2328 -14.2305 -14.2302 -14.2294 -14.2281 -14.2249
   -14.2243 -14.2217 -14.2201 -14.2160 -14.2124 -14.1982 -14.1954 -14.1928
    -9.8422  -9.7905  -9.7444  -9.7157  -9.6696  -9.6589  -9.6364  -9.6009
    -9.5341  -9.4835  -9.4259  -9.3900  -9.3716  -9.3324  -9.2921  -9.2546
    -9.2375  -9.2240  -9.1826  -9.1618  -9.1135  -9.0988  -9.0752  -9.0540
    -9.0425  -9.0283  -9.0141  -9.0024  -8.9737  -8.9342  -8.8956  -8.8686
    -7.8526  -7.7309  -7.7112  -7.7022  -7.6885  -7.6797  -7.6655  -7.6331
    -7.1295  -7.1252  -7.1073  -7.0621  -7.0528  -7.0477  -7.0228  -6.9379
    -5.8899  -5.5510  -5.4768  -5.4452  -5.4153  -5.3888  -5.3532  -5.3483
    -5.3428  -5.3358  -5.3158  -5.2779  -5.0491  -5.0043  -4.9937  -4.6043
    -3.9356  -3.8657  -3.8560  -3.8340  -3.8223  -3.8158  -3.8031  -3.7632
    -3.3544  -3.3301  -3.3075  -3.2878  -3.2842  -3.2693  -3.2610  -3.2082
    -0.9181  -0.8746  -0.8172  -0.7844  -0.7314  -0.7235  -0.6906  -0.6665
    -0.6190  -0.5940  -0.5465  -0.4947  -0.2159  -0.1715  -0.1496  -0.1369
    -0.1063  -0.0889  -0.0416   0.0040   0.3044   0.3983   0.4366   0.4668
     0.4869   0.4941   0.5142   0.5595   0.5700   0.6239   0.6598   0.7385
     0.7469   0.8079   0.8173   0.8422   0.8549   0.9134   0.9332   0.9482
     0.9799   0.9956   1.0153   1.0440   1.0505   1.0767   1.0900   1.1045
     1.1242   1.1325   1.1404   1.1685   1.1894   1.1965   1.2114   1.2397
     1.2597   1.2639   1.2917   1.3099   1.3250   1.3470   1.3620   1.3945
     1.4086   1.4348   1.4400   1.4753   1.4974   1.5135   1.5681   1.5970
     1.6490   1.6666   1.7018   1.7479   1.7920   1.8258   1.8438   2.0904

          k =-0.1233 0.1222-0.1235 (310825 PWs)   bands (ev):

   -18.0054 -17.9218 -17.8885 -17.8858 -17.8761 -17.8743 -17.8608 -17.8104
   -15.7817 -15.7199 -15.7049 -15.6669 -15.6594 -15.6526 -15.6269 -15.5622
   -14.3492 -14.3338 -14.3158 -14.3112 -14.3041 -14.3019 -14.2986 -14.2918
   -14.2804 -14.2793 -14.2750 -14.2734 -14.2731 -14.2675 -14.2668 -14.2662
   -14.2573 -14.2569 -14.2546 -14.2512 -14.2471 -14.2469 -14.2450 -14.2401
   -14.2350 -14.2349 -14.2328 -14.2305 -14.2302 -14.2294 -14.2281 -14.2249
   -14.2243 -14.2217 -14.2201 -14.2160 -14.2124 -14.1982 -14.1954 -14.1928
    -9.8429  -9.7911  -9.7452  -9.7146  -9.6705  -9.6561  -9.6352  -9.6008
    -9.5303  -9.4854  -9.4335  -9.3913  -9.3735  -9.3259  -9.2920  -9.2578
    -9.2362  -9.2197  -9.1861  -9.1612  -9.1146  -9.0965  -9.0748  -9.0567
    -9.0383  -9.0266  -9.0217  -8.9998  -8.9722  -8.9349  -8.8952  -8.8690
    -7.8526  -7.7309  -7.7112  -7.7016  -7.6890  -7.6794  -7.6657  -7.6331
    -7.1294  -7.1251  -7.1074  -7.0621  -7.0527  -7.0478  -7.0228  -6.9380
    -5.8900  -5.5518  -5.4768  -5.4481  -5.4153  -5.3848  -5.3538  -5.3472
    -5.3434  -5.3355  -5.3151  -5.2781  -5.0499  -5.0043  -4.9936  -4.6048
    -3.9355  -3.8660  -3.8562  -3.8335  -3.8226  -3.8157  -3.8031  -3.7631
    -3.3543  -3.3301  -3.3071  -3.2880  -3.2842  -3.2694  -3.2611  -3.2082
    -0.9021  -0.8754  -0.8115  -0.7798  -0.7406  -0.7240  -0.6888  -0.6747
    -0.6304  -0.5951  -0.5485  -0.4980  -0.2198  -0.1784  -0.1499  -0.1346
    -0.1037  -0.0845  -0.0408   0.0024   0.3041   0.4000   0.4329   0.4698
     0.4871   0.5055   0.5211   0.5598   0.5706   0.6279   0.6694   0.7137
     0.7363   0.8080   0.8361   0.8597   0.8948   0.9095   0.9186   0.9382
     0.9806   0.9891   1.0112   1.0332   1.0436   1.0707   1.0797   1.0987
     1.1108   1.1396   1.1480   1.1676   1.1931   1.2114   1.2177   1.2469
     1.2543   1.2686   1.2827   1.3018   1.3257   1.3431   1.3598   1.4005
     1.4112   1.4272   1.4495   1.4658   1.5075   1.5133   1.5650   1.5989
     1.6554   1.6746   1.7007   1.7564   1.7859   1.8129   1.8422   2.0760

          k = 0.1233-0.1222-0.1235 (310825 PWs)   bands (ev):

   -18.0054 -17.9218 -17.8885 -17.8858 -17.8761 -17.8743 -17.8608 -17.8104
   -15.7817 -15.7199 -15.7049 -15.6669 -15.6594 -15.6526 -15.6269 -15.5622
   -14.3492 -14.3338 -14.3158 -14.3112 -14.3041 -14.3019 -14.2986 -14.2918
   -14.2804 -14.2793 -14.2750 -14.2734 -14.2731 -14.2675 -14.2668 -14.2662
   -14.2573 -14.2569 -14.2546 -14.2512 -14.2471 -14.2469 -14.2450 -14.2401
   -14.2350 -14.2349 -14.2328 -14.2305 -14.2302 -14.2294 -14.2281 -14.2249
   -14.2243 -14.2217 -14.2201 -14.2160 -14.2124 -14.1982 -14.1954 -14.1928
    -9.8425  -9.7899  -9.7451  -9.7155  -9.6693  -9.6579  -9.6363  -9.6036
    -9.5335  -9.4805  -9.4260  -9.3923  -9.3730  -9.3295  -9.2874  -9.2573
    -9.2443  -9.2201  -9.1866  -9.1623  -9.1113  -9.0963  -9.0745  -9.0587
    -9.0372  -9.0283  -9.0171  -8.9998  -8.9742  -8.9349  -8.8955  -8.8687
    -7.8525  -7.7310  -7.7114  -7.7013  -7.6896  -7.6792  -7.6656  -7.6331
    -7.1294  -7.1252  -7.1074  -7.0621  -7.0527  -7.0478  -7.0228  -6.9380
    -5.8902  -5.5524  -5.4767  -5.4460  -5.4119  -5.3866  -5.3520  -5.3477
    -5.3444  -5.3359  -5.3171  -5.2802  -5.0484  -5.0053  -4.9931  -4.6046
    -3.9355  -3.8658  -3.8565  -3.8334  -3.8225  -3.8161  -3.8028  -3.7632
    -3.3544  -3.3302  -3.3074  -3.2881  -3.2843  -3.2690  -3.2610  -3.2081
    -0.9192  -0.8590  -0.8120  -0.7870  -0.7360  -0.7261  -0.6852  -0.6736
    -0.6283  -0.5948  -0.5481  -0.4953  -0.2232  -0.1768  -0.1499  -0.1359
    -0.1055  -0.0818  -0.0415   0.0025   0.3046   0.4000   0.4358   0.4687
     0.4871   0.5024   0.5154   0.5542   0.5678   0.6392   0.6735   0.7288
     0.7433   0.7958   0.8400   0.8465   0.8769   0.8932   0.9296   0.9402
     0.9747   0.9921   1.0079   1.0329   1.0530   1.0723   1.0971   1.1067
     1.1120   1.1337   1.1576   1.1593   1.1767   1.2133   1.2204   1.2455
     1.2547   1.2754   1.2884   1.2984   1.3267   1.3466   1.3550   1.4002
     1.4149   1.4267   1.4408   1.4684   1.5066   1.5166   1.5648   1.5943
     1.6499   1.6800   1.6980   1.7559   1.7851   1.8187   1.8385   2.0802

          k =-0.1233-0.1222 0.3706 (310822 PWs)   bands (ev):

   -18.0054 -17.9218 -17.8885 -17.8857 -17.8761 -17.8743 -17.8608 -17.8104
   -15.7817 -15.7199 -15.7049 -15.6666 -15.6598 -15.6526 -15.6269 -15.5622
   -14.3490 -14.3337 -14.3156 -14.3112 -14.3039 -14.3019 -14.2986 -14.2915
   -14.2805 -14.2793 -14.2753 -14.2734 -14.2728 -14.2675 -14.2671 -14.2668
   -14.2573 -14.2569 -14.2543 -14.2512 -14.2469 -14.2468 -14.2450 -14.2401
   -14.2350 -14.2349 -14.2328 -14.2307 -14.2305 -14.2294 -14.2281 -14.2251
   -14.2243 -14.2217 -14.2201 -14.2160 -14.2124 -14.1982 -14.1954 -14.1928
    -9.8232  -9.7824  -9.7396  -9.7217  -9.6935  -9.6608  -9.6518  -9.6066
    -9.5298  -9.4668  -9.4324  -9.4027  -9.3630  -9.3304  -9.3061  -9.2699
    -9.2505  -9.2084  -9.1829  -9.1286  -9.1032  -9.0903  -9.0645  -9.0496
    -9.0423  -9.0297  -9.0116  -9.0030  -8.9853  -8.9466  -8.9028  -8.8691
    -7.8526  -7.7310  -7.7099  -7.7004  -7.6890  -7.6825  -7.6659  -7.6331
    -7.1295  -7.1251  -7.1074  -7.0609  -7.0539  -7.0478  -7.0228  -6.9379
    -5.7763  -5.6032  -5.5438  -5.3886  -5.3733  -5.3548  -5.3511  -5.3416
    -5.3354  -5.3253  -5.2983  -5.2622  -5.1707  -5.1265  -4.9079  -4.7352
    -3.9351  -3.8628  -3.8531  -3.8386  -3.8220  -3.8137  -3.8075  -3.7631
    -3.3543  -3.3299  -3.3062  -3.2876  -3.2849  -3.2700  -3.2611  -3.2082
    -0.8680  -0.8079  -0.7435  -0.7269  -0.6785  -0.6396  -0.6079  -0.5706
    -0.4739  -0.4176  -0.3217  -0.2423  -0.1846  -0.1600  -0.1493  -0.1353
    -0.0971  -0.0771  -0.0435   0.0074   0.1181   0.2196   0.2625   0.3539
     0.3759   0.4200   0.4371   0.4811   0.5070   0.5368   0.5638   0.5880
     0.6224   0.6837   0.8166   0.8407   0.8651   0.9049   0.9120   0.9447
     0.9618   0.9751   0.9875   0.9989   1.0476   1.0608   1.0881   1.1026
     1.1327   1.1473   1.1633   1.1788   1.1964   1.2108   1.2362   1.2527
     1.2625   1.2771   1.3046   1.3211   1.3356   1.3564   1.3706   1.3928
     1.4090   1.4243   1.4324   1.4716   1.4902   1.5152   1.5330   1.5388
     1.5899   1.6464   1.6612   1.6774   1.7399   1.7582   1.8314   1.9476

          k =-0.1233 0.1222-0.3706 (310822 PWs)   bands (ev):

   -18.0054 -17.9218 -17.8885 -17.8857 -17.8761 -17.8743 -17.8608 -17.8104
   -15.7817 -15.7199 -15.7049 -15.6666 -15.6598 -15.6526 -15.6269 -15.5622
   -14.3490 -14.3337 -14.3156 -14.3112 -14.3039 -14.3019 -14.2986 -14.2915
   -14.2805 -14.2793 -14.2753 -14.2734 -14.2728 -14.2675 -14.2671 -14.2668
   -14.2573 -14.2569 -14.2543 -14.2512 -14.2469 -14.2468 -14.2450 -14.2401
   -14.2350 -14.2349 -14.2328 -14.2307 -14.2305 -14.2294 -14.2281 -14.2251
   -14.2243 -14.2217 -14.2201 -14.2160 -14.2124 -14.1982 -14.1954 -14.1928
    -9.8237  -9.7837  -9.7393  -9.7221  -9.6934  -9.6585  -9.6503  -9.6077
    -9.5224  -9.4744  -9.4382  -9.3984  -9.3645  -9.3295  -9.3013  -9.2818
    -9.2438  -9.2082  -9.1819  -9.1272  -9.1040  -9.0869  -9.0652  -9.0542
    -9.0414  -9.0329  -9.0104  -8.9992  -8.9842  -8.9492  -8.9019  -8.8694
    -7.8526  -7.7311  -7.7099  -7.6999  -7.6897  -7.6820  -7.6662  -7.6332
    -7.1293  -7.1251  -7.1075  -7.0609  -7.0538  -7.0479  -7.0228  -6.9379
    -5.7761  -5.6045  -5.5435  -5.3930  -5.3717  -5.3566  -5.3498  -5.3436
    -5.3334  -5.3181  -5.2958  -5.2660  -5.1738  -5.1242  -4.9085  -4.7356
    -3.9349  -3.8635  -3.8526  -3.8383  -3.8225  -3.8136  -3.8074  -3.7631
    -3.3542  -3.3299  -3.3057  -3.2881  -3.2848  -3.2701  -3.2612  -3.2082
    -0.8510  -0.7999  -0.7484  -0.7325  -0.6781  -0.6366  -0.6221  -0.5695
    -0.4813  -0.4226  -0.3253  -0.2498  -0.1832  -0.1724  -0.1438  -0.1408
    -0.0883  -0.0684  -0.0455   0.0025   0.1239   0.2277   0.2675   0.3488
     0.3861   0.4133   0.4399   0.4837   0.5079   0.5351   0.5617   0.5879
     0.6371   0.6752   0.8212   0.8452   0.8790   0.8946   0.9159   0.9365
     0.9667   0.9704   1.0075   1.0128   1.0316   1.0408   1.0762   1.0962
     1.1294   1.1342   1.1648   1.1964   1.2027   1.2193   1.2346   1.2474
     1.2671   1.2782   1.3041   1.3157   1.3280   1.3521   1.3628   1.3936
     1.4122   1.4198   1.4348   1.4740   1.4898   1.5153   1.5330   1.5511
     1.5968   1.6557   1.6673   1.6819   1.7378   1.7650   1.8095   1.9274

          k = 0.1233-0.1222-0.3706 (310822 PWs)   bands (ev):

   -18.0054 -17.9218 -17.8885 -17.8857 -17.8761 -17.8743 -17.8608 -17.8104
   -15.7817 -15.7199 -15.7049 -15.6666 -15.6598 -15.6526 -15.6269 -15.5622
   -14.3490 -14.3337 -14.3156 -14.3112 -14.3039 -14.3019 -14.2986 -14.2915
   -14.2805 -14.2793 -14.2753 -14.2733 -14.2728 -14.2675 -14.2671 -14.2668
   -14.2573 -14.2569 -14.2543 -14.2512 -14.2469 -14.2468 -14.2450 -14.2401
   -14.2350 -14.2349 -14.2328 -14.2307 -14.2305 -14.2294 -14.2281 -14.2251
   -14.2243 -14.2217 -14.2201 -14.2160 -14.2124 -14.1982 -14.1954 -14.1928
    -9.8231  -9.7821  -9.7402  -9.7222  -9.6934  -9.6580  -9.6535  -9.6095
    -9.5277  -9.4632  -9.4324  -9.4033  -9.3679  -9.3285  -9.2961  -9.2773
    -9.2564  -9.2126  -9.1755  -9.1305  -9.1011  -9.0886  -9.0690  -9.0522
    -9.0394  -9.0264  -9.0105  -9.0028  -8.9856  -8.9489  -8.9022  -8.8691
    -7.8526  -7.7311  -7.7101  -7.6992  -7.6907  -7.6816  -7.6661  -7.6332
    -7.1294  -7.1251  -7.1075  -7.0609  -7.0538  -7.0479  -7.0228  -6.9379
    -5.7766  -5.6048  -5.5423  -5.3908  -5.3660  -5.3576  -5.3482  -5.3410
    -5.3352  -5.3263  -5.2957  -5.2723  -5.1695  -5.1236  -4.9088  -4.7354
    -3.9349  -3.8634  -3.8530  -3.8381  -3.8223  -3.8143  -3.8068  -3.7631
    -3.3543  -3.3300  -3.3059  -3.2881  -3.2850  -3.2697  -3.2611  -3.2081
    -0.8513  -0.8034  -0.7463  -0.7379  -0.6818  -0.6351  -0.6226  -0.5708
    -0.4639  -0.4255  -0.3154  -0.2481  -0.1951  -0.1644  -0.1472  -0.1384
    -0.0915  -0.0716  -0.0454   0.0058   0.1211   0.2129   0.2716   0.3531
     0.3903   0.4140   0.4406   0.4824   0.5095   0.5352   0.5622   0.5824
     0.6334   0.6823   0.8095   0.8436   0.8821   0.8966   0.9200   0.9399
     0.9529   0.9689   0.9961   1.0123   1.0366   1.0661   1.0837   1.1005
     1.1232   1.1356   1.1541   1.1936   1.2002   1.2182   1.2315   1.2420
     1.2699   1.2812   1.3126   1.3237   1.3321   1.3525   1.3666   1.3904
     1.4028   1.4270   1.4280   1.4754   1.4967   1.5158   1.5256   1.5498
     1.5904   1.6530   1.6666   1.6836   1.7377   1.7650   1.8117   1.9300

          k =-0.1233-0.3665 0.1235 (310723 PWs)   bands (ev):

   -18.0054 -17.9218 -17.8885 -17.8858 -17.8761 -17.8743 -17.8608 -17.8104
   -15.7817 -15.7199 -15.7049 -15.6669 -15.6594 -15.6526 -15.6269 -15.5622
   -14.3492 -14.3336 -14.3158 -14.3112 -14.3038 -14.3019 -14.2986 -14.2909
   -14.2806 -14.2793 -14.2749 -14.2735 -14.2733 -14.2675 -14.2670 -14.2664
   -14.2574 -14.2569 -14.2547 -14.2508 -14.2471 -14.2469 -14.2450 -14.2401
   -14.2350 -14.2349 -14.2328 -14.2307 -14.2305 -14.2294 -14.2281 -14.2250
   -14.2243 -14.2217 -14.2201 -14.2160 -14.2124 -14.1982 -14.1954 -14.1928
    -9.8393  -9.7929  -9.7419  -9.7160  -9.6702  -9.6593  -9.6338  -9.6022
    -9.5320  -9.4658  -9.4247  -9.3981  -9.3718  -9.3413  -9.3195  -9.2820
    -9.2412  -9.2269  -9.1688  -9.1564  -9.1082  -9.0821  -9.0717  -9.0469
    -9.0364  -9.0206  -9.0090  -8.9954  -8.9642  -8.9399  -8.9007  -8.8919
    -7.8514  -7.7305  -7.7114  -7.7004  -7.6867  -7.6798  -7.6683  -7.6337
    -7.1286  -7.1257  -7.1074  -7.0622  -7.0528  -7.0472  -7.0235  -6.9380
    -5.7774  -5.5653  -5.5467  -5.3942  -5.3727  -5.3655  -5.3504  -5.3439
    -5.3357  -5.3222  -5.3083  -5.2669  -5.1550  -5.1287  -4.9252  -4.7477
    -3.9340  -3.8660  -3.8562  -3.8335  -3.8234  -3.8150  -3.8037  -3.7632
    -3.3545  -3.3296  -3.3072  -3.2882  -3.2837  -3.2697  -3.2618  -3.2084
    -0.9141  -0.8649  -0.7733  -0.7263  -0.6834  -0.6533  -0.5840  -0.5331
    -0.3927  -0.3463  -0.2907  -0.2142  -0.1750  -0.1540  -0.1393  -0.1298
    -0.1099  -0.0910  -0.0429  -0.0012   0.1925   0.2402   0.3134   0.3268
     0.3854   0.4529   0.4837   0.4960   0.5066   0.5319   0.5547   0.6174
     0.6483   0.6924   0.7318   0.7639   0.7975   0.8564   0.8823   0.9163
     0.9316   0.9679   1.0115   1.0311   1.0482   1.0603   1.0759   1.0975
     1.1228   1.1358   1.1645   1.1859   1.2036   1.2168   1.2364   1.2508
     1.2720   1.2886   1.3046   1.3079   1.3338   1.3547   1.3799   1.4012
     1.4204   1.4322   1.4483   1.4610   1.4828   1.5046   1.5161   1.5421
     1.5798   1.6027   1.6363   1.6546   1.7009   1.7049   1.8291   1.9028

          k =-0.1233 0.3665-0.1235 (310723 PWs)   bands (ev):

   -18.0054 -17.9218 -17.8885 -17.8858 -17.8761 -17.8743 -17.8608 -17.8104
   -15.7817 -15.7199 -15.7049 -15.6669 -15.6594 -15.6526 -15.6269 -15.5622
   -14.3492 -14.3336 -14.3158 -14.3112 -14.3038 -14.3019 -14.2986 -14.2909
   -14.2806 -14.2793 -14.2749 -14.2735 -14.2733 -14.2675 -14.2670 -14.2664
   -14.2574 -14.2569 -14.2547 -14.2508 -14.2471 -14.2469 -14.2450 -14.2401
   -14.2350 -14.2349 -14.2328 -14.2307 -14.2305 -14.2294 -14.2281 -14.2250
   -14.2243 -14.2217 -14.2201 -14.2160 -14.2124 -14.1982 -14.1954 -14.1928
    -9.8398  -9.7937  -9.7435  -9.7142  -9.6702  -9.6571  -9.6330  -9.6029
    -9.5285  -9.4652  -9.4267  -9.4049  -9.3730  -9.3418  -9.3117  -9.2906
    -9.2419  -9.2214  -9.1623  -9.1591  -9.1128  -9.0819  -9.0704  -9.0443
    -9.0294  -9.0273  -9.0148  -8.9928  -8.9620  -8.9407  -8.9013  -8.8919
    -7.8514  -7.7305  -7.7115  -7.7000  -7.6871  -7.6795  -7.6685  -7.6337
    -7.1284  -7.1257  -7.1074  -7.0622  -7.0527  -7.0473  -7.0234  -6.9381
    -5.7776  -5.5647  -5.5481  -5.3953  -5.3740  -5.3650  -5.3498  -5.3445
    -5.3371  -5.3140  -5.3117  -5.2658  -5.1552  -5.1299  -4.9247  -4.7487
    -3.9338  -3.8665  -3.8560  -3.8335  -3.8233  -3.8151  -3.8037  -3.7632
    -3.3544  -3.3296  -3.3068  -3.2883  -3.2838  -3.2699  -3.2618  -3.2084
    -0.8999  -0.8732  -0.7688  -0.7171  -0.6874  -0.6580  -0.5811  -0.5357
    -0.3972  -0.3550  -0.2988  -0.2211  -0.1809  -0.1643  -0.1428  -0.1333
    -0.1058  -0.0876  -0.0451   0.0016   0.2019   0.2596   0.3142   0.3364
     0.4042   0.4561   0.4766   0.4863   0.5105   0.5355   0.5467   0.6240
     0.6408   0.6950   0.7269   0.7641   0.8150   0.8404   0.8970   0.9147
     0.9449   0.9509   0.9966   1.0189   1.0424   1.0639   1.0804   1.1005
     1.1228   1.1379   1.1638   1.1947   1.2079   1.2178   1.2314   1.2472
     1.2618   1.2845   1.3105   1.3240   1.3305   1.3615   1.3765   1.4047
     1.4155   1.4190   1.4446   1.4687   1.4914   1.4986   1.5146   1.5575
     1.5660   1.6003   1.6364   1.6583   1.6947   1.7090   1.8378   1.8840

          k = 0.1233-0.3665-0.1235 (310723 PWs)   bands (ev):

   -18.0054 -17.9218 -17.8885 -17.8858 -17.8761 -17.8743 -17.8608 -17.8104
   -15.7817 -15.7199 -15.7049 -15.6669 -15.6594 -15.6526 -15.6269 -15.5622
   -14.3492 -14.3336 -14.3158 -14.3112 -14.3038 -14.3019 -14.2986 -14.2909
   -14.2806 -14.2793 -14.2749 -14.2735 -14.2733 -14.2675 -14.2670 -14.2664
   -14.2574 -14.2569 -14.2547 -14.2508 -14.2471 -14.2469 -14.2450 -14.2401
   -14.2350 -14.2349 -14.2328 -14.2307 -14.2305 -14.2294 -14.2281 -14.2250
   -14.2243 -14.2217 -14.2201 -14.2160 -14.2124 -14.1982 -14.1954 -14.1928
    -9.8396  -9.7922  -9.7427  -9.7157  -9.6700  -9.6584  -9.6336  -9.6047
    -9.5313  -9.4617  -9.4246  -9.4046  -9.3685  -9.3437  -9.3114  -9.2858
    -9.2449  -9.2275  -9.1719  -9.1532  -9.1077  -9.0833  -9.0715  -9.0435
    -9.0322  -9.0232  -9.0134  -8.9949  -8.9608  -8.9412  -8.9026  -8.8908
    -7.8514  -7.7306  -7.7116  -7.6997  -7.6877  -7.6792  -7.6685  -7.6337
    -7.1284  -7.1257  -7.1075  -7.0622  -7.0527  -7.0473  -7.0234  -6.9381
    -5.7779  -5.5694  -5.5428  -5.3960  -5.3707  -5.3629  -5.3480  -5.3413
    -5.3363  -5.3196  -5.3131  -5.2732  -5.1532  -5.1282  -4.9252  -4.7482
    -3.9338  -3.8665  -3.8562  -3.8333  -3.8233  -3.8152  -3.8035  -3.7632
    -3.3546  -3.3297  -3.3070  -3.2884  -3.2840  -3.2693  -3.2618  -3.2082
    -0.9145  -0.8593  -0.7727  -0.7267  -0.6769  -0.6541  -0.5831  -0.5301
    -0.3960  -0.3521  -0.2977  -0.2198  -0.1947  -0.1676  -0.1458  -0.1282
    -0.1066  -0.0856  -0.0403   0.0013   0.2035   0.2590   0.3121   0.3350
     0.4026   0.4648   0.4704   0.4863   0.5147   0.5379   0.5500   0.6211
     0.6541   0.6835   0.7182   0.7634   0.8181   0.8335   0.8886   0.9153
     0.9383   0.9520   1.0099   1.0245   1.0385   1.0614   1.0897   1.1040
     1.1263   1.1345   1.1635   1.1798   1.2016   1.2122   1.2270   1.2627
     1.2739   1.2852   1.3034   1.3251   1.3341   1.3540   1.3720   1.4062
     1.4218   1.4273   1.4463   1.4699   1.4859   1.4958   1.5268   1.5404
     1.5711   1.6039   1.6336   1.6613   1.6895   1.7064   1.8371   1.8894

          k =-0.1233-0.3665 0.3706 (310844 PWs)   bands (ev):

   -18.0054 -17.9218 -17.8885 -17.8857 -17.8761 -17.8743 -17.8608 -17.8104
   -15.7817 -15.7199 -15.7049 -15.6666 -15.6598 -15.6526 -15.6269 -15.5622
   -14.3490 -14.3336 -14.3156 -14.3112 -14.3035 -14.3019 -14.2986 -14.2905
   -14.2810 -14.2794 -14.2752 -14.2734 -14.2731 -14.2675 -14.2673 -14.2671
   -14.2574 -14.2569 -14.2544 -14.2508 -14.2469 -14.2468 -14.2450 -14.2401
   -14.2350 -14.2349 -14.2328 -14.2311 -14.2305 -14.2294 -14.2281 -14.2252
   -14.2243 -14.2217 -14.2201 -14.2160 -14.2124 -14.1982 -14.1954 -14.1928
    -9.8224  -9.7822  -9.7355  -9.7231  -9.6931  -9.6620  -9.6504  -9.6069
    -9.5285  -9.4536  -9.4281  -9.4027  -9.3814  -9.3385  -9.3205  -9.2829
    -9.2568  -9.2039  -9.1740  -9.1383  -9.1087  -9.0794  -9.0558  -9.0431
    -9.0357  -9.0160  -9.0089  -9.0017  -8.9758  -8.9360  -8.9104  -8.8942
    -7.8514  -7.7305  -7.7099  -7.6984  -7.6877  -7.6826  -7.6686  -7.6337
    -7.1286  -7.1257  -7.1074  -7.0610  -7.0538  -7.0473  -7.0235  -6.9380
    -5.6690  -5.5511  -5.4950  -5.4564  -5.3876  -5.3594  -5.3519  -5.3432
    -5.3373  -5.3154  -5.2786  -5.2556  -5.2314  -5.0652  -5.0331  -4.8761
    -3.9335  -3.8643  -3.8529  -3.8364  -3.8244  -3.8129  -3.8072  -3.7630
    -3.3545  -3.3295  -3.3062  -3.2873  -3.2850  -3.2704  -3.2619  -3.2085
    -0.8591  -0.7490  -0.6518  -0.5981  -0.4926  -0.4547  -0.3730  -0.3489
    -0.3312  -0.2922  -0.2661  -0.2393  -0.1669  -0.1465  -0.1433  -0.1182
    -0.0843  -0.0768  -0.0449   0.0042   0.0959   0.1744   0.2175   0.2326
     0.2785   0.3238   0.3476   0.3875   0.4100   0.4904   0.5396   0.5578
     0.6079   0.6531   0.7058   0.7200   0.7580   0.8156   0.8306   0.8515
     0.8668   0.8951   0.9432   0.9621   0.9901   1.0304   1.0550   1.0919
     1.1184   1.1439   1.1592   1.1685   1.1884   1.2108   1.2476   1.2744
     1.2984   1.3081   1.3187   1.3446   1.3486   1.3623   1.3858   1.4027
     1.4073   1.4229   1.4418   1.4729   1.4782   1.4903   1.5037   1.5273
     1.5550   1.5747   1.6036   1.6340   1.6615   1.6748   1.7134   1.7874

          k =-0.1233 0.3665-0.3706 (310844 PWs)   bands (ev):

   -18.0054 -17.9218 -17.8885 -17.8857 -17.8761 -17.8743 -17.8608 -17.8104
   -15.7817 -15.7199 -15.7049 -15.6666 -15.6598 -15.6526 -15.6269 -15.5622
   -14.3490 -14.3336 -14.3156 -14.3112 -14.3035 -14.3019 -14.2986 -14.2905
   -14.2810 -14.2794 -14.2752 -14.2734 -14.2731 -14.2675 -14.2673 -14.2671
   -14.2574 -14.2569 -14.2544 -14.2508 -14.2469 -14.2468 -14.2450 -14.2401
   -14.2350 -14.2349 -14.2328 -14.2311 -14.2305 -14.2294 -14.2281 -14.2252
   -14.2243 -14.2217 -14.2201 -14.2160 -14.2124 -14.1982 -14.1954 -14.1928
    -9.8225  -9.7837  -9.7371  -9.7220  -9.6923  -9.6592  -9.6500  -9.6085
    -9.5228  -9.4547  -9.4339  -9.4007  -9.3809  -9.3440  -9.3197  -9.2865
    -9.2562  -9.1993  -9.1697  -9.1387  -9.1109  -9.0811  -9.0529  -9.0439
    -9.0342  -9.0227  -9.0064  -8.9989  -8.9752  -8.9376  -8.9102  -8.8943
    -7.8514  -7.7305  -7.7101  -7.6979  -7.6886  -7.6818  -7.6690  -7.6337
    -7.1285  -7.1257  -7.1075  -7.0611  -7.0537  -7.0474  -7.0234  -6.9380
    -5.6686  -5.5528  -5.4952  -5.4564  -5.3863  -5.3592  -5.3535  -5.3430
    -5.3376  -5.3134  -5.2801  -5.2543  -5.2302  -5.0651  -5.0336  -4.8772
    -3.9333  -3.8649  -3.8524  -3.8361  -3.8248  -3.8130  -3.8070  -3.7630
    -3.3544  -3.3295  -3.3057  -3.2876  -3.2849  -3.2705  -3.2620  -3.2085
    -0.8530  -0.7408  -0.6464  -0.5901  -0.5040  -0.4587  -0.3819  -0.3577
    -0.3381  -0.2989  -0.2656  -0.2474  -0.1777  -0.1487  -0.1400  -0.1219
    -0.0835  -0.0646  -0.0512   0.0002   0.0984   0.1870   0.2293   0.2442
     0.2950   0.3317   0.3560   0.3737   0.4059   0.4795   0.5307   0.5584
     0.6232   0.6568   0.6990   0.7340   0.7640   0.7954   0.8316   0.8592
     0.8730   0.9030   0.9311   0.9642   0.9952   1.0143   1.0429   1.0812
     1.1139   1.1352   1.1645   1.1911   1.1995   1.2252   1.2416   1.2609
     1.2839   1.3058   1.3276   1.3383   1.3487   1.3734   1.3808   1.3944
     1.4106   1.4273   1.4503   1.4616   1.4807   1.4968   1.5040   1.5327
     1.5596   1.5653   1.5992   1.6396   1.6630   1.6818   1.7130   1.7658

          k = 0.1233-0.3665-0.3706 (310844 PWs)   bands (ev):

   -18.0054 -17.9218 -17.8885 -17.8857 -17.8761 -17.8743 -17.8608 -17.8104
   -15.7817 -15.7199 -15.7049 -15.6666 -15.6598 -15.6526 -15.6269 -15.5622
   -14.3490 -14.3336 -14.3156 -14.3112 -14.3035 -14.3019 -14.2986 -14.2905
   -14.2810 -14.2794 -14.2752 -14.2734 -14.2731 -14.2675 -14.2673 -14.2671
   -14.2574 -14.2569 -14.2544 -14.2508 -14.2469 -14.2468 -14.2450 -14.2401
   -14.2350 -14.2349 -14.2328 -14.2311 -14.2305 -14.2294 -14.2281 -14.2252
   -14.2243 -14.2217 -14.2201 -14.2160 -14.2124 -14.1982 -14.1954 -14.1928
    -9.8223  -9.7818  -9.7361  -9.7236  -9.6929  -9.6599  -9.6514  -9.6097
    -9.5264  -9.4478  -9.4252  -9.4127  -9.3811  -9.3371  -9.3105  -9.2909
    -9.2638  -9.2059  -9.1640  -9.1428  -9.1086  -9.0799  -9.0583  -9.0387
    -9.0295  -9.0253  -9.0083  -8.9995  -8.9739  -8.9375  -8.9120  -8.8931
    -7.8514  -7.7306  -7.7101  -7.6972  -7.6897  -7.6813  -7.6690  -7.6337
    -7.1284  -7.1257  -7.1075  -7.0611  -7.0537  -7.0474  -7.0234  -6.9380
    -5.6688  -5.5589  -5.4942  -5.4385  -5.3906  -5.3572  -5.3496  -5.3442
    -5.3397  -5.3280  -5.2904  -5.2482  -5.2221  -5.0617  -5.0380  -4.8762
    -3.9333  -3.8649  -3.8526  -3.8360  -3.8248  -3.8132  -3.8067  -3.7630
    -3.3545  -3.3296  -3.3059  -3.2877  -3.2851  -3.2700  -3.2620  -3.2084
    -0.8532  -0.7479  -0.6468  -0.5980  -0.4990  -0.4514  -0.3748  -0.3505
    -0.3161  -0.2981  -0.2663  -0.2583  -0.1941  -0.1572  -0.1427  -0.1127
    -0.0969  -0.0711  -0.0446   0.0065   0.1029   0.1905   0.2284   0.2576
     0.2941   0.3229   0.3461   0.3659   0.4173   0.4779   0.5369   0.5601
     0.6169   0.6603   0.6891   0.7317   0.7527   0.8112   0.8295   0.8467
     0.8666   0.9174   0.9297   0.9658   1.0010   1.0164   1.0582   1.0862
     1.1126   1.1296   1.1445   1.1787   1.1899   1.2234   1.2579   1.2745
     1.2867   1.3029   1.3271   1.3429   1.3525   1.3727   1.3883   1.3945
     1.4067   1.4201   1.4480   1.4661   1.4796   1.4967   1.5082   1.5379
     1.5585   1.5641   1.5920   1.6324   1.6640   1.6778   1.7131   1.7726

          k =-0.3700-0.1222 0.1235 (310843 PWs)   bands (ev):

   -18.0053 -17.9218 -17.8886 -17.8857 -17.8761 -17.8743 -17.8608 -17.8104
   -15.7798 -15.7218 -15.7049 -15.6669 -15.6594 -15.6526 -15.6269 -15.5622
   -14.3489 -14.3335 -14.3164 -14.3112 -14.3042 -14.3019 -14.2986 -14.2918
   -14.2803 -14.2793 -14.2747 -14.2734 -14.2729 -14.2675 -14.2663 -14.2661
   -14.2569 -14.2561 -14.2547 -14.2520 -14.2481 -14.2469 -14.2450 -14.2401
   -14.2350 -14.2349 -14.2328 -14.2305 -14.2302 -14.2294 -14.2281 -14.2252
   -14.2243 -14.2217 -14.2201 -14.2160 -14.2124 -14.1982 -14.1954 -14.1928
    -9.8179  -9.7655  -9.7612  -9.7150  -9.6985  -9.6668  -9.6425  -9.6069
    -9.5408  -9.4851  -9.4064  -9.3894  -9.3616  -9.3450  -9.3078  -9.2524
    -9.2319  -9.2193  -9.1835  -9.1729  -9.1188  -9.0964  -9.0789  -9.0544
    -9.0286  -9.0218  -8.9917  -8.9800  -8.9597  -8.9390  -8.9187  -8.8906
    -7.8497  -7.7364  -7.7120  -7.7010  -7.6899  -7.6800  -7.6665  -7.6334
    -7.1292  -7.1244  -7.1061  -7.0621  -7.0526  -7.0476  -7.0227  -6.9380
    -5.7721  -5.5931  -5.5142  -5.3939  -5.3749  -5.3654  -5.3519  -5.3481
    -5.3423  -5.3175  -5.3016  -5.2692  -5.1758  -5.1316  -4.9030  -4.7384
    -3.9353  -3.8648  -3.8563  -3.8337  -3.8205  -3.8182  -3.8040  -3.7634
    -3.3542  -3.3283  -3.3071  -3.2874  -3.2832  -3.2699  -3.2627  -3.2104
    -0.8925  -0.8146  -0.7889  -0.7498  -0.6941  -0.6789  -0.6299  -0.5896
    -0.4525  -0.3395  -0.2863  -0.2338  -0.1754  -0.1637  -0.1352  -0.1193
    -0.0953  -0.0467  -0.0384  -0.0014   0.1143   0.2330   0.3195   0.3589
     0.4184   0.4337   0.4517   0.4982   0.5211   0.5398   0.5642   0.6258
     0.6349   0.7218   0.7595   0.8012   0.8288   0.8552   0.8979   0.9221
     0.9521   0.9682   0.9960   1.0156   1.0433   1.0686   1.0871   1.1122
     1.1198   1.1419   1.1545   1.1638   1.1942   1.2144   1.2233   1.2513
     1.2738   1.2924   1.3033   1.3334   1.3412   1.3590   1.3907   1.4068
     1.4238   1.4382   1.4587   1.4762   1.4888   1.5126   1.5504   1.5654
     1.5939   1.6063   1.6170   1.6552   1.6927   1.7240   1.8136   1.9005

          k =-0.3700 0.1222-0.1235 (310843 PWs)   bands (ev):

   -18.0053 -17.9218 -17.8886 -17.8857 -17.8761 -17.8743 -17.8608 -17.8104
   -15.7798 -15.7218 -15.7049 -15.6669 -15.6594 -15.6526 -15.6269 -15.5622
   -14.3489 -14.3335 -14.3164 -14.3112 -14.3042 -14.3019 -14.2986 -14.2918
   -14.2803 -14.2793 -14.2747 -14.2734 -14.2729 -14.2675 -14.2663 -14.2661
   -14.2569 -14.2561 -14.2547 -14.2520 -14.2481 -14.2469 -14.2450 -14.2401
   -14.2350 -14.2349 -14.2328 -14.2305 -14.2302 -14.2294 -14.2281 -14.2252
   -14.2243 -14.2217 -14.2201 -14.2160 -14.2124 -14.1982 -14.1954 -14.1928
    -9.8182  -9.7716  -9.7584  -9.7122  -9.6972  -9.6657  -9.6415  -9.6077
    -9.5380  -9.4858  -9.4173  -9.3866  -9.3697  -9.3362  -9.3033  -9.2545
    -9.2296  -9.2167  -9.1894  -9.1727  -9.1186  -9.0954  -9.0745  -9.0564
    -9.0338  -9.0206  -8.9903  -8.9808  -8.9579  -8.9390  -8.9179  -8.8920
    -7.8497  -7.7364  -7.7121  -7.7004  -7.6905  -7.6797  -7.6667  -7.6334
    -7.1290  -7.1244  -7.1062  -7.0621  -7.0526  -7.0477  -7.0226  -6.9380
    -5.7719  -5.5948  -5.5135  -5.3955  -5.3777  -5.3666  -5.3527  -5.3464
    -5.3391  -5.3150  -5.2958  -5.2713  -5.1784  -5.1325  -4.9024  -4.7393
    -3.9352  -3.8652  -3.8566  -3.8332  -3.8211  -3.8177  -3.8040  -3.7633
    -3.3541  -3.3283  -3.3067  -3.2874  -3.2836  -3.2699  -3.2628  -3.2104
    -0.8875  -0.8133  -0.7847  -0.7504  -0.6804  -0.6734  -0.6327  -0.5944
    -0.4763  -0.3478  -0.2931  -0.2363  -0.1852  -0.1646  -0.1553  -0.1015
    -0.0897  -0.0489  -0.0373  -0.0060   0.1305   0.2553   0.3146   0.3619
     0.4206   0.4302   0.4630   0.4887   0.5160   0.5468   0.5707   0.6273
     0.6506   0.7154   0.7589   0.7950   0.8379   0.8614   0.8916   0.9033
     0.9533   0.9783   1.0028   1.0135   1.0425   1.0501   1.0707   1.1046
     1.1316   1.1436   1.1690   1.1752   1.1844   1.2033   1.2310   1.2507
     1.2622   1.2971   1.3044   1.3251   1.3484   1.3642   1.3894   1.4116
     1.4192   1.4283   1.4572   1.4711   1.4918   1.5234   1.5566   1.5758
     1.5874   1.6118   1.6252   1.6567   1.6812   1.7126   1.8265   1.8802

          k = 0.3700-0.1222-0.1235 (310843 PWs)   bands (ev):

   -18.0053 -17.9218 -17.8886 -17.8857 -17.8761 -17.8743 -17.8608 -17.8104
   -15.7798 -15.7218 -15.7049 -15.6669 -15.6594 -15.6526 -15.6269 -15.5622
   -14.3489 -14.3335 -14.3164 -14.3112 -14.3042 -14.3019 -14.2986 -14.2918
   -14.2803 -14.2793 -14.2747 -14.2734 -14.2729 -14.2675 -14.2663 -14.2661
   -14.2569 -14.2561 -14.2547 -14.2520 -14.2481 -14.2469 -14.2450 -14.2401
   -14.2350 -14.2349 -14.2328 -14.2305 -14.2302 -14.2294 -14.2281 -14.2252
   -14.2243 -14.2217 -14.2201 -14.2160 -14.2124 -14.1982 -14.1954 -14.1928
    -9.8178  -9.7678  -9.7591  -9.7153  -9.6985  -9.6660  -9.6424  -9.6089
    -9.5388  -9.4844  -9.4064  -9.3914  -9.3670  -9.3392  -9.3003  -9.2622
    -9.2362  -9.2081  -9.1905  -9.1747  -9.1113  -9.1006  -9.0743  -9.0619
    -9.0276  -9.0172  -8.9907  -8.9818  -8.9620  -8.9360  -8.9199  -8.8909
    -7.8497  -7.7365  -7.7121  -7.7003  -7.6907  -7.6797  -7.6666  -7.6334
    -7.1290  -7.1244  -7.1062  -7.0621  -7.0525  -7.0477  -7.0226  -6.9380
    -5.7722  -5.5939  -5.5147  -5.3946  -5.3759  -5.3676  -5.3516  -5.3490
    -5.3363  -5.3147  -5.2954  -5.2758  -5.1768  -5.1336  -4.9018  -4.7392
    -3.9352  -3.8651  -3.8567  -3.8331  -3.8214  -3.8177  -3.8038  -3.7634
    -3.3542  -3.3284  -3.3070  -3.2875  -3.2836  -3.2696  -3.2627  -3.2103
    -0.8955  -0.8072  -0.7878  -0.7472  -0.6852  -0.6726  -0.6337  -0.5876
    -0.4750  -0.3453  -0.2951  -0.2327  -0.1856  -0.1650  -0.1474  -0.1063
    -0.0933  -0.0481  -0.0374  -0.0056   0.1261   0.2524   0.3203   0.3590
     0.4125   0.4448   0.4608   0.4883   0.5164   0.5403   0.5757   0.6164
     0.6389   0.7138   0.7735   0.8092   0.8372   0.8630   0.8828   0.9265
     0.9440   0.9723   0.9906   1.0093   1.0333   1.0507   1.0834   1.1130
     1.1325   1.1391   1.1588   1.1691   1.1909   1.2152   1.2268   1.2448
     1.2771   1.2908   1.3124   1.3273   1.3397   1.3662   1.3801   1.4033
     1.4309   1.4396   1.4495   1.4723   1.4973   1.5215   1.5537   1.5602
     1.5890   1.6151   1.6242   1.6557   1.6878   1.7133   1.8241   1.8847

          k =-0.3700-0.1222 0.3706 (310840 PWs)   bands (ev):

   -18.0053 -17.9218 -17.8886 -17.8857 -17.8761 -17.8743 -17.8608 -17.8104
   -15.7798 -15.7218 -15.7049 -15.6665 -15.6598 -15.6526 -15.6270 -15.5622
   -14.3487 -14.3334 -14.3162 -14.3112 -14.3039 -14.3019 -14.2986 -14.2915
   -14.2805 -14.2793 -14.2749 -14.2733 -14.2726 -14.2675 -14.2671 -14.2663
   -14.2569 -14.2561 -14.2545 -14.2521 -14.2478 -14.2469 -14.2450 -14.2401
   -14.2350 -14.2349 -14.2328 -14.2307 -14.2305 -14.2294 -14.2281 -14.2254
   -14.2243 -14.2217 -14.2201 -14.2160 -14.2124 -14.1982 -14.1954 -14.1928
    -9.8030  -9.7600  -9.7445  -9.7204  -9.6980  -9.6873  -9.6658  -9.6120
    -9.5284  -9.4653  -9.4339  -9.4179  -9.3563  -9.3279  -9.3141  -9.2742
    -9.2376  -9.2108  -9.1817  -9.1320  -9.1051  -9.0898  -9.0687  -9.0498
    -9.0420  -9.0149  -8.9955  -8.9795  -8.9676  -8.9442  -8.9272  -8.8933
    -7.8498  -7.7366  -7.7104  -7.6993  -7.6903  -7.6825  -7.6677  -7.6334
    -7.1291  -7.1243  -7.1061  -7.0609  -7.0537  -7.0477  -7.0226  -6.9380
    -5.6624  -5.5159  -5.5001  -5.4706  -5.3887  -5.3726  -5.3578  -5.3534
    -5.3417  -5.3273  -5.2986  -5.2735  -5.1923  -5.0472  -5.0226  -4.8688
    -3.9347  -3.8623  -3.8531  -3.8379  -3.8198  -3.8168  -3.8084  -3.7632
    -3.3542  -3.3281  -3.3066  -3.2868  -3.2839  -3.2699  -3.2625  -3.2103
    -0.7873  -0.7454  -0.6971  -0.6640  -0.5594  -0.4683  -0.4398  -0.3803
    -0.3380  -0.2864  -0.2502  -0.1842  -0.1734  -0.1601  -0.1307  -0.1109
    -0.0987  -0.0637  -0.0400   0.0104   0.0729   0.1592   0.2041   0.2467
     0.2774   0.3273   0.3593   0.4044   0.4486   0.4675   0.5073   0.5287
     0.6445   0.6844   0.7338   0.7581   0.7724   0.8149   0.8261   0.8612
     0.9018   0.9258   0.9413   0.9659   0.9996   1.0263   1.0491   1.0837
     1.1055   1.1401   1.1663   1.1873   1.2073   1.2163   1.2387   1.2713
     1.2829   1.3052   1.3245   1.3389   1.3467   1.3571   1.3856   1.3974
     1.4191   1.4331   1.4407   1.4650   1.4865   1.5023   1.5093   1.5342
     1.5546   1.5715   1.6031   1.6486   1.6703   1.7147   1.7320   1.7734

          k =-0.3700 0.1222-0.3706 (310840 PWs)   bands (ev):

   -18.0053 -17.9218 -17.8886 -17.8857 -17.8761 -17.8743 -17.8608 -17.8104
   -15.7798 -15.7218 -15.7049 -15.6665 -15.6598 -15.6526 -15.6270 -15.5622
   -14.3487 -14.3334 -14.3162 -14.3112 -14.3039 -14.3019 -14.2986 -14.2915
   -14.2805 -14.2793 -14.2749 -14.2733 -14.2726 -14.2675 -14.2671 -14.2663
   -14.2569 -14.2561 -14.2545 -14.2521 -14.2478 -14.2469 -14.2450 -14.2401
   -14.2350 -14.2349 -14.2328 -14.2307 -14.2305 -14.2294 -14.2281 -14.2254
   -14.2243 -14.2217 -14.2201 -14.2160 -14.2124 -14.1982 -14.1954 -14.1928
    -9.8025  -9.7662  -9.7435  -9.7176  -9.6990  -9.6828  -9.6646  -9.6136
    -9.5204  -9.4724  -9.4457  -9.4092  -9.3569  -9.3264  -9.3152  -9.2756
    -9.2358  -9.2103  -9.1820  -9.1310  -9.1061  -9.0803  -9.0751  -9.0524
    -9.0436  -9.0174  -8.9924  -8.9768  -8.9636  -8.9526  -8.9228  -8.8949
    -7.8499  -7.7366  -7.7104  -7.6985  -7.6913  -7.6818  -7.6681  -7.6335
    -7.1290  -7.1243  -7.1062  -7.0609  -7.0537  -7.0477  -7.0226  -6.9380
    -5.6614  -5.5244  -5.4930  -5.4750  -5.3907  -5.3712  -5.3549  -5.3472
    -5.3426  -5.3224  -5.3004  -5.2782  -5.1929  -5.0468  -5.0230  -4.8696
    -3.9346  -3.8632  -3.8526  -3.8375  -3.8209  -3.8162  -3.8082  -3.7632
    -3.3540  -3.3281  -3.3061  -3.2868  -3.2843  -3.2699  -3.2626  -3.2103
    -0.7812  -0.7331  -0.6941  -0.6664  -0.5422  -0.4956  -0.4317  -0.3849
    -0.3443  -0.2951  -0.2724  -0.1961  -0.1839  -0.1615  -0.1409  -0.1116
    -0.0793  -0.0706  -0.0381  -0.0076   0.0989   0.1886   0.2202   0.2602
     0.2961   0.3107   0.3691   0.3948   0.4321   0.4653   0.5017   0.5374
     0.6491   0.6946   0.7300   0.7524   0.7843   0.8112   0.8243   0.8523
     0.9117   0.9186   0.9471   0.9689   0.9959   1.0175   1.0389   1.0906
     1.1044   1.1344   1.1518   1.1942   1.2050   1.2308   1.2517   1.2705
[...]
    -3.9356  -3.8853  -3.8790  -3.8363  -3.8312  -3.8101  -3.7936  -3.7925
    -3.3617  -3.3467  -3.3374  -3.3049  -3.2802  -3.2685  -3.2601  -3.2302
    -0.5925  -0.5401  -0.4919  -0.4355  -0.4159  -0.3792  -0.3517  -0.3227
    -0.2997  -0.2682  -0.2306  -0.1905  -0.1814  -0.1457  -0.1314  -0.1198
    -0.1085  -0.0654  -0.0327   0.0078   0.0203   0.1104   0.1433   0.1621
     0.2224   0.2485   0.2650   0.2983   0.3358   0.3634   0.4169   0.4651
     0.6084   0.6446   0.6895   0.7199   0.7525   0.7770   0.8049   0.8233
     0.8436   0.8716   0.8964   0.9065   0.9289   0.9522   0.9788   1.0021
     1.0288   1.0524   1.0680   1.0748   1.0940   1.1271   1.1331   1.1510
     1.2508   1.2680   1.2956   1.3163   1.3260   1.3397   1.3495   1.3643
     1.3859   1.4004   1.4200   1.4386   1.4623   1.4730   1.4995   1.5088
     1.5154   1.5317   1.5543   1.5760   1.5957   1.6109   1.6361   1.6596

          k =-0.3709 0.3654-0.3701 (310855 PWs)   bands (ev):

   -18.0109 -17.9460 -17.9189 -17.8955 -17.8816 -17.8572 -17.8556 -17.8349
   -15.7784 -15.7538 -15.7139 -15.6740 -15.6670 -15.6268 -15.6196 -15.5870
   -14.3803 -14.3711 -14.3442 -14.3412 -14.3394 -14.3342 -14.3296 -14.3259
   -14.3090 -14.3058 -14.3015 -14.3003 -14.2975 -14.2968 -14.2937 -14.2933
   -14.2903 -14.2848 -14.2841 -14.2813 -14.2811 -14.2783 -14.2668 -14.2651
   -14.2643 -14.2636 -14.2633 -14.2611 -14.2599 -14.2595 -14.2586 -14.2548
   -14.2499 -14.2475 -14.2455 -14.2360 -14.2325 -14.2297 -14.2258 -14.2223
    -9.8057  -9.7781  -9.7525  -9.7312  -9.7208  -9.6941  -9.6620  -9.6279
    -9.5002  -9.4603  -9.4442  -9.4168  -9.3999  -9.3609  -9.3396  -9.2947
    -9.2688  -9.1927  -9.1803  -9.1480  -9.1345  -9.1109  -9.0958  -9.0773
    -9.0581  -9.0362  -9.0127  -9.0048  -8.9850  -8.9790  -8.9553  -8.9267
    -7.8498  -7.7570  -7.7347  -7.7007  -7.6920  -7.6652  -7.6602  -7.6537
    -7.1412  -7.1291  -7.1183  -7.0749  -7.0587  -7.0284  -7.0134  -6.9639
    -5.5747  -5.5193  -5.4388  -5.4151  -5.4011  -5.3879  -5.3664  -5.3587
    -5.3533  -5.3144  -5.2993  -5.2837  -5.2349  -5.1841  -5.1739  -5.0337
    -3.9355  -3.8855  -3.8789  -3.8358  -3.8317  -3.8102  -3.7937  -3.7923
    -3.3615  -3.3468  -3.3370  -3.3048  -3.2810  -3.2682  -3.2600  -3.2303
    -0.5674  -0.5142  -0.4711  -0.4471  -0.3986  -0.3818  -0.3585  -0.3341
    -0.3176  -0.3074  -0.2879  -0.2199  -0.1752  -0.1607  -0.1377  -0.1132
    -0.0908  -0.0700  -0.0549  -0.0099   0.0872   0.1371   0.1609   0.2169
     0.2295   0.2533   0.2761   0.2961   0.3329   0.3635   0.3908   0.4256
     0.6366   0.6587   0.6808   0.7220   0.7491   0.7755   0.7894   0.8150
     0.8635   0.8680   0.8894   0.9119   0.9317   0.9469   0.9629   0.9972
     1.0352   1.0496   1.0682   1.0799   1.1007   1.1136   1.1311   1.1516
     1.2472   1.2699   1.2906   1.3103   1.3297   1.3414   1.3575   1.3707
     1.3835   1.4084   1.4140   1.4386   1.4600   1.4691   1.5033   1.5154
     1.5276   1.5448   1.5537   1.5703   1.5895   1.6014   1.6280   1.6543

          k = 0.3709-0.3654-0.3701 (310855 PWs)   bands (ev):

   -18.0109 -17.9460 -17.9189 -17.8955 -17.8816 -17.8572 -17.8556 -17.8349
   -15.7784 -15.7538 -15.7139 -15.6740 -15.6670 -15.6268 -15.6196 -15.5870
   -14.3803 -14.3711 -14.3442 -14.3412 -14.3394 -14.3342 -14.3296 -14.3259
   -14.3090 -14.3058 -14.3015 -14.3003 -14.2975 -14.2968 -14.2937 -14.2933
   -14.2903 -14.2848 -14.2841 -14.2813 -14.2811 -14.2783 -14.2668 -14.2651
   -14.2643 -14.2636 -14.2633 -14.2611 -14.2599 -14.2595 -14.2586 -14.2548
   -14.2499 -14.2475 -14.2455 -14.2360 -14.2325 -14.2297 -14.2258 -14.2223
    -9.8054  -9.7756  -9.7490  -9.7360  -9.7237  -9.6946  -9.6615  -9.6279
    -9.5056  -9.4556  -9.4336  -9.4247  -9.4043  -9.3443  -9.3382  -9.3080
    -9.2705  -9.1991  -9.1717  -9.1534  -9.1283  -9.1107  -9.1014  -9.0795
    -9.0524  -9.0336  -9.0190  -9.0001  -8.9886  -8.9749  -8.9588  -8.9253
    -7.8498  -7.7570  -7.7346  -7.7008  -7.6920  -7.6652  -7.6601  -7.6535
    -7.1412  -7.1290  -7.1184  -7.0749  -7.0587  -7.0284  -7.0134  -6.9639
    -5.5754  -5.5213  -5.4414  -5.4102  -5.4029  -5.3824  -5.3682  -5.3508
    -5.3436  -5.3223  -5.3051  -5.2974  -5.2232  -5.1877  -5.1748  -5.0324
    -3.9355  -3.8857  -3.8788  -3.8353  -3.8324  -3.8100  -3.7935  -3.7925
    -3.3617  -3.3470  -3.3372  -3.3049  -3.2807  -3.2680  -3.2600  -3.2302
    -0.5804  -0.5134  -0.4767  -0.4354  -0.4133  -0.3753  -0.3517  -0.3358
    -0.3232  -0.2927  -0.2339  -0.2242  -0.2003  -0.1687  -0.1441  -0.1229
    -0.1113  -0.0636  -0.0443  -0.0024   0.0825   0.1304   0.1688   0.1932
     0.2441   0.2647   0.2825   0.3011   0.3391   0.3548   0.3721   0.4347
     0.6308   0.6562   0.6837   0.7191   0.7453   0.7787   0.7861   0.8363
     0.8508   0.8669   0.8796   0.9190   0.9332   0.9524   0.9657   0.9873
     1.0371   1.0473   1.0651   1.0852   1.0922   1.1181   1.1279   1.1649
     1.2448   1.2670   1.2963   1.3112   1.3302   1.3387   1.3515   1.3740
     1.3922   1.4008   1.4200   1.4365   1.4657   1.4761   1.5005   1.5095
     1.5206   1.5359   1.5496   1.5745   1.5929   1.6007   1.6344   1.6522

     highest occupied level (ev):     2.0617

!    total energy              =  -16707.46742545 Ry
     Harris-Foulkes estimate   =  -16707.46742545 Ry
     estimated scf accuracy    <          1.7E-10 Ry

     total all-electron energy =   -678114.527110 Ry

     The total energy is the sum of the following terms:

     one-electron contribution =    -953.83521576 Ry
     hartree contribution      =     675.90567077 Ry
     xc contribution           =    -795.78160957 Ry
     ewald contribution        =   -1215.13484977 Ry
     DFT-D3 Dispersion         =      -0.64239884 Ry
     one-center paw contrib.   =  -14417.97902227 Ry

     convergence has been achieved in  10 iterations

     Forces acting on atoms (cartesian axes, Ry/au):

     atom    1 type  1   force =     0.00083042    0.00026180   -0.00159782
     atom    2 type  1   force =     0.00029955    0.00097929   -0.00019099
     atom    3 type  1   force =     0.00061105   -0.00058542   -0.00044948
     atom    4 type  1   force =    -0.00099183   -0.00007766   -0.00004421
     atom    5 type  1   force =    -0.00028967   -0.00070018   -0.00012118
     atom    6 type  1   force =    -0.00011739   -0.00086790    0.00095784
     atom    7 type  1   force =     0.00060418    0.00055580   -0.00066493
     atom    8 type  1   force =    -0.00076069   -0.00034102   -0.00013618
     atom    9 type  2   force =     0.00008512   -0.00039461    0.00134575
     atom   10 type  2   force =     0.00044367    0.00044395    0.00085404
     atom   11 type  2   force =    -0.00029135   -0.00041282   -0.00008467
     atom   12 type  2   force =    -0.00051484    0.00119411   -0.00046033
     atom   13 type  2   force =    -0.00042511    0.00010540    0.00018957
     atom   14 type  2   force =     0.00031422    0.00032706    0.00057942
     atom   15 type  2   force =     0.00093754    0.00073353    0.00096104
     atom   16 type  2   force =     0.00053638    0.00092662   -0.00059658
     atom   17 type  2   force =    -0.00133715    0.00034888    0.00078353
     atom   18 type  2   force =    -0.00292588   -0.00032170    0.00040952
     atom   19 type  2   force =     0.00073748    0.00005952   -0.00038133
     atom   20 type  2   force =     0.00079980   -0.00053897   -0.00037421
     atom   21 type  2   force =    -0.00008028   -0.00009123   -0.00016189
     atom   22 type  2   force =    -0.00075739    0.00013316   -0.00056445
     atom   23 type  2   force =     0.00217711    0.00029081    0.00014565
     atom   24 type  2   force =    -0.00023011   -0.00008423   -0.00004551
     atom   25 type  2   force =    -0.00014122   -0.00076424    0.00024803
     atom   26 type  2   force =    -0.00025650    0.00003695   -0.00007790
     atom   27 type  2   force =     0.00011253    0.00028567   -0.00008739
     atom   28 type  2   force =    -0.00088289    0.00054886    0.00038650
     atom   29 type  2   force =     0.00022297   -0.00011325   -0.00013377
     atom   30 type  2   force =     0.00012791    0.00000393    0.00008481
     atom   31 type  2   force =    -0.00001214    0.00006058    0.00046004
     atom   32 type  2   force =     0.00003476   -0.00073815   -0.00018459
     atom   33 type  3   force =    -0.00038817    0.00019426   -0.00076007
     atom   34 type  3   force =     0.00139831    0.00007063    0.00094503
     atom   35 type  3   force =    -0.00085349    0.00027754    0.00023479
     atom   36 type  3   force =    -0.00062735    0.00025136   -0.00138683
     atom   37 type  3   force =    -0.00037934   -0.00070645    0.00000507
     atom   38 type  3   force =    -0.00018720    0.00075599    0.00132455
     atom   39 type  3   force =     0.00201589    0.00058964   -0.00184745
     atom   40 type  3   force =     0.00100562   -0.00142382   -0.00094072
     atom   41 type  4   force =    -0.00038840    0.00014367   -0.00035776
     atom   42 type  4   force =    -0.00042801    0.00038551   -0.00082370
     atom   43 type  4   force =    -0.00030076   -0.00046659    0.00014212
     atom   44 type  4   force =     0.00088376   -0.00106799    0.00157482
     atom   45 type  4   force =    -0.00056271    0.00150184    0.00069652
     atom   46 type  4   force =     0.00026475   -0.00087433    0.00036474
     atom   47 type  4   force =    -0.00039431   -0.00114170    0.00219487
     atom   48 type  4   force =    -0.00093771    0.00133999    0.00033663
     atom   49 type  4   force =     0.00036917   -0.00052286    0.00091953
     atom   50 type  4   force =    -0.00012035   -0.00071461    0.00003357
     atom   51 type  4   force =     0.00046557    0.00012416   -0.00098685
     atom   52 type  4   force =    -0.00094782   -0.00105741    0.00021785
     atom   53 type  4   force =     0.00093327   -0.00023263   -0.00041497
     atom   54 type  4   force =     0.00002315   -0.00057200   -0.00087936
     atom   55 type  4   force =    -0.00090947    0.00005010    0.00039719
     atom   56 type  4   force =    -0.00034904    0.00124880   -0.00079187
     atom   57 type  5   force =    -0.00043026    0.00014494   -0.00053274
     atom   58 type  5   force =    -0.00039694    0.00011929   -0.00016779
     atom   59 type  5   force =     0.00007030   -0.00050130    0.00102658
     atom   60 type  5   force =     0.00047768    0.00023123    0.00018639
     atom   61 type  5   force =    -0.00009445    0.00049409   -0.00041999
     atom   62 type  5   force =    -0.00036005   -0.00022077   -0.00015539
     atom   63 type  5   force =    -0.00023494   -0.00008459   -0.00080242
     atom   64 type  5   force =     0.00028899    0.00063356    0.00010323
     atom   65 type  5   force =     0.00031990   -0.00037921   -0.00061841
     atom   66 type  5   force =     0.00000773    0.00041485    0.00030770
     atom   67 type  5   force =     0.00046682   -0.00075497   -0.00019091
     atom   68 type  5   force =    -0.00015943    0.00058405   -0.00050562
     atom   69 type  5   force =     0.00077511   -0.00119498   -0.00057498
     atom   70 type  5   force =     0.00017276   -0.00050265   -0.00001113
     atom   71 type  5   force =     0.00008550   -0.00096609    0.00000972
     atom   72 type  5   force =     0.00009414   -0.00020579    0.00005156
     atom   73 type  5   force =    -0.00021981   -0.00015309   -0.00062228
     atom   74 type  5   force =    -0.00009056   -0.00023245   -0.00013353
     atom   75 type  5   force =    -0.00064122    0.00037961   -0.00030781
     atom   76 type  5   force =    -0.00110826    0.00120584   -0.00058739
     atom   77 type  5   force =     0.00072667   -0.00031292   -0.00082074
     atom   78 type  5   force =    -0.00024652    0.00042538    0.00063489
     atom   79 type  5   force =    -0.00020922   -0.00017054    0.00019942
     atom   80 type  5   force =     0.00004721   -0.00038550    0.00012292
     atom   81 type  5   force =     0.00017900    0.00037595   -0.00011102
     atom   82 type  5   force =    -0.00012359   -0.00049039   -0.00039057
     atom   83 type  5   force =    -0.00003568    0.00067428   -0.00015980
     atom   84 type  5   force =    -0.00004210    0.00033360   -0.00018451
     atom   85 type  5   force =    -0.00085467   -0.00076041    0.00046381
     atom   86 type  5   force =    -0.00035571    0.00018795    0.00000182
     atom   87 type  5   force =     0.00059169   -0.00044500    0.00074075
     atom   88 type  5   force =     0.00019956   -0.00066386    0.00062995
     atom   89 type  5   force =     0.00029963    0.00053644    0.00023873
     atom   90 type  5   force =     0.00016686    0.00020541    0.00043315
     atom   91 type  5   force =     0.00091252    0.00051006    0.00105802
     atom   92 type  5   force =     0.00074291    0.00030256   -0.00018784
     atom   93 type  5   force =    -0.00041202    0.00053850    0.00095522
     atom   94 type  5   force =     0.00027764   -0.00015301   -0.00018342
     atom   95 type  5   force =     0.00043539    0.00090228   -0.00058342
     atom   96 type  5   force =     0.00023185   -0.00004000   -0.00015817

     Total force =     0.011022     Total SCF correction =     0.000040


     Computing stress (Cartesian axis) and pressure

          total   stress  (Ry/bohr**3)                   (kbar)     P=   -0.33
  -0.00000061   0.00000020  -0.00000668         -0.09      0.03     -0.98
   0.00000020  -0.00000404  -0.00000005          0.03     -0.59     -0.01
  -0.00000668  -0.00000005  -0.00000205         -0.98     -0.01     -0.30


     number of scf cycles    =  24
     number of bfgs steps    =  23

     enthalpy old            =  -16707.4672481870 Ry
     enthalpy new            =  -16707.4674254490 Ry

     CASE: enthalpy_new < enthalpy_old

     new trust radius        =       0.0394066720 bohr
     new conv_thr            =       0.0000000018 Ry

     new unit-cell volume =  14025.60701 a.u.^3 (  2078.38050 Ang^3 )
     density =      4.05058 g/cm^3

CELL_PARAMETERS (alat= 23.71984200)
   1.010853572   0.000000000   0.000000000
   0.000000000   1.026414032   0.000000000
   0.000000000   0.000000000   1.012920731

ATOMIC_POSITIONS (crystal)
Pb      -0.013910550  -0.024591510   0.009928573
Pb       0.483966888  -0.020282306   0.002275332
Pb      -0.014463625   0.482209671   0.010156641
Pb       0.023422711  -0.016862249   0.513340187
Pb       0.487857964   0.482904436  -0.002921548
Pb       0.022061049   0.480291259   0.505561908
Pb       0.525368325  -0.018847379   0.504424179
Pb       0.521625107   0.485690292   0.501448060
I        0.236980451  -0.007525064  -0.044196748
I        0.736859634  -0.005290657   0.040800953
I        0.236713921   0.489662632   0.059663548
I        0.271754552  -0.034333526   0.526625146
I        0.737547249   0.489532958  -0.054011773
I        0.270533929   0.472965601   0.458520840
I        0.771375992  -0.019143452   0.477150758
I        0.770782932   0.458960316   0.540128505
I       -0.025662254   0.232965272   0.005261701
I        0.477212890   0.233700984   0.008977202
I       -0.032803850   0.732448568   0.003191248
I        0.039381235   0.230552143   0.505865394
I        0.470755549   0.733711670  -0.000331634
I        0.026384971   0.729305526   0.512797599
I        0.526425006   0.229875800   0.503329824
I        0.543133285   0.730357912   0.505066405
I        0.036301948  -0.030350942   0.257544794
I        0.469816675  -0.023134796   0.253786626
I       -0.051691774   0.483803631   0.257940204
I       -0.038083905  -0.020601255   0.757748196
I        0.551797662   0.483865169   0.247698215
I        0.050462486   0.478662869   0.758024623
I        0.533874929  -0.024549383   0.755329569
I        0.456604746   0.471429196   0.748735588
C        0.236701183   0.250824042   0.252021146
C        0.762812852   0.254449265   0.276874942
C        0.246034159   0.735015682   0.292335774
C        0.258789858   0.251031510   0.734478686
C        0.751019048   0.793055405   0.252225023
C        0.254203484   0.772883018   0.746670448
C        0.733200205   0.252594832   0.755651390
C        0.758344246   0.750403125   0.735688909
N        0.203638510   0.197549363   0.170465709
N        0.692218507   0.234421148   0.204050804
N        0.163304872   0.679768246   0.265937822
N        0.187777997   0.233601796   0.807544870
N        0.664156927   0.744237784   0.225549014
N        0.174926320   0.732789306   0.799306509
N        0.705182230   0.203296852   0.841438663
N        0.688317133   0.743038324   0.811401056
N        0.314389319   0.222846698   0.314050261
N        0.847776534   0.198875789   0.294351033
N        0.341735055   0.718594306   0.256734248
N        0.340344355   0.191147970   0.715568361
N        0.841292050   0.749094985   0.275577454
N        0.329616168   0.718983279   0.701847709
N        0.808870074   0.223015604   0.691836981
N        0.835746538   0.684340675   0.720801992
H        0.197476633   0.324171609   0.269888537
H        0.750122887   0.322417372   0.326756556
H        0.234943678   0.798979934   0.347775152
H        0.249143705   0.320352451   0.685934593
H        0.747936461   0.877574738   0.255474111
H        0.257620155   0.857209981   0.739476847
H        0.690996547   0.323827369   0.735772434
H        0.751888655   0.815803123   0.681337244
H        0.236281289   0.128560431   0.148329706
H        0.698527466   0.172331932   0.153902334
H        0.168183626   0.618679904   0.214446701
H        0.191543640   0.170317919   0.856384824
H        0.655810754   0.665033878   0.224539638
H        0.161428259   0.654542618   0.804093791
H        0.740963868   0.136822055   0.866674194
H        0.689398324   0.683416948   0.864724519
H        0.141717407   0.223832898   0.125929395
H        0.629711804   0.283601276   0.195318913
H        0.094383368   0.691640788   0.305165751
H        0.127169782   0.284772579   0.817054955
H        0.599124463   0.787401866   0.208384946
H        0.120129122   0.779828553   0.833276518
H        0.644072837   0.230079756   0.886600631
H        0.629677707   0.797184559   0.816061544
H        0.356134981   0.155657054   0.303387654
H        0.866285843   0.133867337   0.252461308
H        0.358620940   0.661089166   0.204178974
H        0.355096916   0.124848053   0.756949206
H        0.854740966   0.670642846   0.271756352
H        0.337175629   0.640065992   0.709383838
H        0.852511944   0.157226107   0.704306434
H        0.845895987   0.620484750   0.767128264
H        0.334396515   0.269054945   0.376117189
H        0.898466644   0.218641036   0.353846972
H        0.399484030   0.770579463   0.274890651
H        0.392097134   0.209799763   0.656493272
H        0.904009107   0.796154271   0.291811189
H        0.386723823   0.755682740   0.659106143
H        0.824665142   0.267159899   0.627038546
H        0.887721124   0.695741567   0.660244463



     Writing output data file FAPbI83_vcrelax6.save/
     NEW-OLD atomic charge density approx. for the potential
     extrapolated charge  431.77916, renormalised to  432.00000

     total cpu time spent up to now is   595980.0 secs

     Self-consistent Calculation

     iteration #  1     ecut=   120.00 Ry     beta= 0.70
     Davidson diagonalization with overlap
     ethr =  1.00E-06,  avg # of iterations =  5.0

     total cpu time spent up to now is   600379.4 secs

     total energy              =  -16707.46717556 Ry
     Harris-Foulkes estimate   =  -16707.83009368 Ry
     estimated scf accuracy    <       0.00102757 Ry

     iteration #  2     ecut=   120.00 Ry     beta= 0.70
     Davidson diagonalization with overlap
     ethr =  2.38E-07,  avg # of iterations =  3.0

     total cpu time spent up to now is   603336.9 secs

     total energy              =  -16707.46753796 Ry
     Harris-Foulkes estimate   =  -16707.46786188 Ry
     estimated scf accuracy    <       0.00065433 Ry

     iteration #  3     ecut=   120.00 Ry     beta= 0.70
     Davidson diagonalization with overlap
