
     Program PWSCF v.6.4 starts on 22May2020 at 22: 3:45 

     This program is part of the open-source Quantum ESPRESSO suite
     for quantum simulation of materials; please cite
         "P. Giannozzi et al., J. Phys.:Condens. Matter 21 395502 (2009);
         "P. Giannozzi et al., J. Phys.:Condens. Matter 29 465901 (2017);
          URL http://www.quantum-espresso.org", 
     in publications or presentations arising from this work. More details at
     http://www.quantum-espresso.org/quote

     Parallel version (MPI), running on    32 processors

     MPI processes distributed on     1 nodes
     R & G space division:  proc/nbgrp/npool/nimage =      32
     Waiting for input...
     Reading input from standard input
     Message from routine read_cards :
     DEPRECATED: no units specified in CELL_PARAMETERS card

     Current dimensions of program PWSCF are:
     Max number of different atomic species (ntypx) = 10
     Max number of k-points (npk) =  40000
     Max angular momentum in pseudopotentials (lmaxx) =  3
               file Pb.pbe-dn-kjpaw_psl.1.0.0.UPF: wavefunction(s)  6S 6P 5D renormalized
               file I.pbe-n-kjpaw_psl.1.0.0.UPF: wavefunction(s)  5S renormalized
               file C.pbe-n-kjpaw_psl.1.0.0.UPF: wavefunction(s)  2S 2P renormalized
               file N.pbe-n-kjpaw_psl.1.0.0.UPF: wavefunction(s)  2S renormalized
               file H.pbe-kjpaw_psl.1.0.0.UPF: wavefunction(s)  1S renormalized

     --------------------------------------------
     Parameters for DFT-D3 Dispersion Correction:
     --------------------------------------------
       Reference C6 values for interpolation: 

         atom   Coordination number   C6
         H          0.912             6.05
         H          0.000            15.18
         C          0.000            98.23
         C          0.987            86.49
         C          1.998            58.72
         C          2.999            51.56
         C          3.984            36.41
         N          0.000            50.54
         N          0.994            44.25
         N          2.014            39.35
         N          2.990            31.16
         I          0.000           703.93
         I          0.997           717.00
         Pb         0.000          1477.63
         Pb         0.938          1266.00
         Pb         1.936          1088.91
         Pb         2.908          1048.37
         Pb         3.910           910.57

       Values used:

         atom   Coordination number  R0_AB[au]  C6      C8
         Pb         4.791            4.041    910.57 144158.44
         Pb         4.869            4.041    910.57 144158.29
         Pb         4.735            4.041    910.57 144158.62
         Pb         4.849            4.041    910.57 144158.32
         Pb         4.690            4.041    910.58 144158.84
         Pb         4.765            4.041    910.57 144158.51
         Pb         4.839            4.041    910.57 144158.33
         Pb         4.694            4.041    910.58 144158.81
         I          1.950            3.532    717.00  65855.99
         I          1.992            3.532    717.00  65856.00
         I          1.851            3.532    717.00  65855.98
         I          1.943            3.532    717.00  65855.99
         I          1.858            3.532    717.00  65855.98
         I          1.886            3.532    717.00  65855.99
         I          2.006            3.532    717.00  65856.00
         I          1.924            3.532    717.00  65855.99
         I          1.910            3.532    717.00  65855.99
         I          1.912            3.532    717.00  65855.99
         I          1.962            3.532    717.00  65856.00
         I          1.959            3.532    717.00  65856.00
         I          1.955            3.532    717.00  65856.00
         I          2.027            3.532    717.00  65856.00
         I          1.965            3.532    717.00  65856.00
         I          1.955            3.532    717.00  65856.00
         I          1.866            3.532    717.00  65855.98
         I          1.966            3.532    717.00  65856.00
         I          1.936            3.532    717.00  65855.99
         I          1.974            3.532    717.00  65856.00
         I          1.804            3.532    717.00  65855.97
         I          1.849            3.532    717.00  65855.98
         I          1.950            3.532    717.00  65856.00
         I          1.904            3.532    717.00  65855.99
         C          3.070            2.750     51.05   1476.41
         C          3.070            2.750     51.05   1476.32
         C          3.069            2.750     51.05   1476.49
         C          3.073            2.750     51.03   1475.93
         C          3.077            2.750     51.01   1475.36
         C          3.067            2.750     51.06   1476.85
         C          3.068            2.750     51.06   1476.62
         C          3.070            2.750     51.05   1476.34
         N          3.102            2.478     31.23    689.04
         N          3.099            2.478     31.24    689.07
         N          3.113            2.478     31.23    688.91
         N          3.101            2.478     31.23    689.05
         N          3.101            2.478     31.23    689.04
         N          3.103            2.478     31.23    689.03
         N          3.098            2.478     31.24    689.09
         N          3.110            2.478     31.23    688.95
         N          3.097            2.478     31.24    689.10
         N          3.104            2.478     31.23    689.01
         N          3.111            2.478     31.23    688.93
         N          3.104            2.478     31.23    689.01
         N          3.108            2.478     31.23    688.96
         N          3.100            2.478     31.23    689.06
         N          3.101            2.478     31.23    689.05
         N          3.111            2.478     31.23    688.94
         H          1.020            2.062      6.16     74.51
         H          1.020            2.062      6.16     74.51
         H          1.017            2.062      6.17     74.55
         H          1.017            2.062      6.17     74.54
         H          1.022            2.062      6.16     74.49
         H          1.019            2.062      6.16     74.52
         H          1.020            2.062      6.16     74.52
         H          1.015            2.062      6.17     74.56
         H          1.026            2.062      6.16     74.45
         H          1.065            2.062      6.13     74.14
         H          1.034            2.062      6.15     74.38
         H          1.054            2.062      6.14     74.22
         H          1.058            2.062      6.14     74.19
         H          1.051            2.062      6.14     74.24
         H          1.027            2.062      6.16     74.45
         H          1.061            2.062      6.14     74.17
         H          1.048            2.062      6.14     74.27
         H          1.034            2.062      6.15     74.38
         H          1.042            2.062      6.15     74.31
         H          1.048            2.062      6.14     74.27
         H          1.046            2.062      6.15     74.28
         H          1.033            2.062      6.15     74.39
         H          1.031            2.062      6.16     74.41
         H          1.047            2.062      6.14     74.27
         H          1.038            2.062      6.15     74.35
         H          1.025            2.062      6.16     74.46
         H          1.027            2.062      6.16     74.45
         H          1.027            2.062      6.16     74.44
         H          1.064            2.062      6.13     74.15
         H          1.053            2.062      6.14     74.23
         H          1.046            2.062      6.15     74.28
         H          1.023            2.062      6.16     74.48
         H          1.033            2.062      6.15     74.39
         H          1.049            2.062      6.14     74.26
         H          1.052            2.062      6.14     74.24
         H          1.063            2.062      6.13     74.16
         H          1.061            2.062      6.14     74.17
         H          1.043            2.062      6.15     74.30
         H          1.033            2.062      6.15     74.39
         H          1.099            2.062      6.12     73.93

         Molecular C6 ( Ry / a.u.^6 ) =   1270646.52


     Subspace diagonalization in iterative solution of the eigenvalue problem:
     a serial algorithm will be used


     Parallelization info
     --------------------
     sticks:   dense  smooth     PW     G-vecs:    dense   smooth      PW
     Min         692     692    178                77560    77560   10153
     Max         693     693    180                77565    77565   10157
     Sum       22175   22175   5725              2482015  2482015  324961



     bravais-lattice index     =            0
     lattice parameter (alat)  =      23.7198  a.u.
     unit-cell volume          =   13976.5105 (a.u.)^3
     number of atoms/cell      =           96
     number of atomic types    =            5
     number of electrons       =       432.00
     number of Kohn-Sham states=          216
     kinetic-energy cutoff     =     120.0000  Ry
     charge density cutoff     =     480.0000  Ry
     convergence threshold     =      1.0E-07
     mixing beta               =       0.7000
     number of iterations used =            8  plain     mixing
     Exchange-correlation      = SLA PW PBX PBC ( 1  4  3  4 0 0)
     nstep                     =          100


     celldm(1)=  23.719842  celldm(2)=   0.000000  celldm(3)=   0.000000
     celldm(4)=   0.000000  celldm(5)=   0.000000  celldm(6)=   0.000000

     crystal axes: (cart. coord. in units of alat)
               a(1) = (   1.012588   0.000000   0.000000 )  
               a(2) = (   0.000000   1.018364   0.000000 )  
               a(3) = (   0.000000   0.000000   1.015612 )  

     reciprocal axes: (cart. coord. in units 2 pi/alat)
               b(1) = (  0.987568  0.000000  0.000000 )  
               b(2) = (  0.000000  0.981967  0.000000 )  
               b(3) = (  0.000000  0.000000  0.984628 )  


     PseudoPot. # 1 for Pb read from file:
     ../Pseudopotential/Pb.pbe-dn-kjpaw_psl.1.0.0.UPF
     MD5 check sum: 684fc8fbce61a260853528575e4d9ab7
     Pseudo is Projector augmented-wave + core cor, Zval = 14.0
     Generated using "atomic" code by A. Dal Corso v.6.3
     Shape of augmentation charge: PSQ
     Using radial grid of 1281 points,  6 beta functions with: 
                l(1) =   0
                l(2) =   0
                l(3) =   1
                l(4) =   1
                l(5) =   2
                l(6) =   2
     Q(r) pseudized with 0 coefficients 


     PseudoPot. # 2 for I  read from file:
     ../Pseudopotential/I.pbe-n-kjpaw_psl.1.0.0.UPF
     MD5 check sum: cd3d296c3308a581e1559a0c8a554cb5
     Pseudo is Projector augmented-wave + core cor, Zval =  7.0
     Generated using "atomic" code by A. Dal Corso v.6.3
     Shape of augmentation charge: PSQ
     Using radial grid of 1247 points,  6 beta functions with: 
                l(1) =   0
                l(2) =   0
                l(3) =   1
                l(4) =   1
                l(5) =   2
                l(6) =   2
     Q(r) pseudized with 0 coefficients 


     PseudoPot. # 3 for C  read from file:
     ../Pseudopotential/C.pbe-n-kjpaw_psl.1.0.0.UPF
     MD5 check sum: 5f16ad9a65e90284d1d834d4ab3b0f7d
     Pseudo is Projector augmented-wave + core cor, Zval =  4.0
     Generated using "atomic" code by A. Dal Corso v.6.3
     Shape of augmentation charge: PSQ
     Using radial grid of 1073 points,  4 beta functions with: 
                l(1) =   0
                l(2) =   0
                l(3) =   1
                l(4) =   1
     Q(r) pseudized with 0 coefficients 


     PseudoPot. # 4 for N  read from file:
     ../Pseudopotential/N.pbe-n-kjpaw_psl.1.0.0.UPF
     MD5 check sum: 14c48229446f9f2d411169a3abcbc3fa
     Pseudo is Projector augmented-wave + core cor, Zval =  5.0
     Generated using "atomic" code by A. Dal Corso v.6.3
     Shape of augmentation charge: PSQ
     Using radial grid of 1085 points,  4 beta functions with: 
                l(1) =   0
                l(2) =   0
                l(3) =   1
                l(4) =   1
     Q(r) pseudized with 0 coefficients 


     PseudoPot. # 5 for H  read from file:
     ../Pseudopotential/H.pbe-kjpaw_psl.1.0.0.UPF
     MD5 check sum: d81a744832360e4a8af0b0b5b123bc2a
     Pseudo is Projector augmented-wave, Zval =  1.0
     Generated using "atomic" code by A. Dal Corso v.6.3MaX
     Shape of augmentation charge: PSQ
     Using radial grid of  929 points,  2 beta functions with: 
                l(1) =   0
                l(2) =   0
     Q(r) pseudized with 0 coefficients 


     atomic species   valence    mass     pseudopotential
        Pb            14.00   207.97600     Pb( 1.00)
        I              7.00   126.90400     I ( 1.00)
        C              4.00    12.00000     C ( 1.00)
        N              5.00    14.00300     N ( 1.00)
        H              1.00     1.00700     H ( 1.00)

     No symmetry found



   Cartesian axes

     site n.     atom                  positions (alat units)
         1           Pb  tau(   1) = (  -0.0139258  -0.0193496  -0.0002975  )
         2           Pb  tau(   2) = (   0.4934592  -0.0223325   0.0051091  )
         3           Pb  tau(   3) = (  -0.0100962   0.4927407   0.0096194  )
         4           Pb  tau(   4) = (   0.0231239  -0.0163057   0.5153260  )
         5           Pb  tau(   5) = (   0.4925431   0.4887295  -0.0008636  )
         6           Pb  tau(   6) = (   0.0229792   0.4909917   0.5142966  )
         7           Pb  tau(   7) = (   0.5320599  -0.0176055   0.5135522  )
         8           Pb  tau(   8) = (   0.5274813   0.4947444   0.5130621  )
         9           I   tau(   9) = (   0.2384733  -0.0081604  -0.0308509  )
        10           I   tau(  10) = (   0.7439148  -0.0110069   0.0395001  )
        11           I   tau(  11) = (   0.2393865   0.4951641   0.0655531  )
        12           I   tau(  12) = (   0.2750695  -0.0251702   0.5288595  )
        13           I   tau(  13) = (   0.7458209   0.4933189  -0.0449181  )
        14           I   tau(  14) = (   0.2776094   0.4926001   0.4672698  )
        15           I   tau(  15) = (   0.7817021  -0.0084932   0.4870917  )
        16           I   tau(  16) = (   0.7857328   0.4742257   0.5450071  )
        17           I   tau(  17) = (  -0.0333505   0.2395252   0.0047976  )
        18           I   tau(  18) = (   0.4713387   0.2337338   0.0123841  )
        19           I   tau(  19) = (  -0.0259380   0.7465905  -0.0035287  )
        20           I   tau(  20) = (   0.0486545   0.2382889   0.5082496  )
        21           I   tau(  21) = (   0.4775784   0.7438773  -0.0015258  )
        22           I   tau(  22) = (   0.0157302   0.7472590   0.5169168  )
        23           I   tau(  23) = (   0.5419346   0.2364803   0.5133195  )
        24           I   tau(  24) = (   0.5527055   0.7464392   0.5230145  )
        25           I   tau(  25) = (   0.0325513  -0.0325134   0.2572569  )
        26           I   tau(  26) = (   0.4747992  -0.0354065   0.2605426  )
        27           I   tau(  27) = (  -0.0457002   0.4913682   0.2612748  )
        28           I   tau(  28) = (  -0.0399226  -0.0243139   0.7643688  )
        29           I   tau(  29) = (   0.5593717   0.4885755   0.2542569  )
        30           I   tau(  30) = (   0.0542517   0.4868396   0.7704508  )
        31           I   tau(  31) = (   0.5440202  -0.0260514   0.7701552  )
        32           I   tau(  32) = (   0.4592650   0.4770097   0.7634839  )
        33           C   tau(  33) = (   0.2453407   0.2590304   0.2610189  )
        34           C   tau(  34) = (   0.7666066   0.2597055   0.2735644  )
        35           C   tau(  35) = (   0.2527163   0.7579862   0.2822876  )
        36           C   tau(  36) = (   0.2626760   0.2538843   0.7479645  )
        37           C   tau(  37) = (   0.7637028   0.8062274   0.2587110  )
        38           C   tau(  38) = (   0.2568785   0.7933567   0.7563085  )
        39           C   tau(  39) = (   0.7577228   0.2623141   0.7658743  )
        40           C   tau(  40) = (   0.7646618   0.7606792   0.7504392  )
        41           N   tau(  41) = (   0.1966051   0.2093285   0.1828027  )
        42           N   tau(  42) = (   0.6927208   0.2209746   0.2103115  )
        43           N   tau(  43) = (   0.1635112   0.7041214   0.2730655  )
        44           N   tau(  44) = (   0.1921630   0.2362878   0.8232943  )
        45           N   tau(  45) = (   0.6716222   0.7568140   0.2521952  )
        46           N   tau(  46) = (   0.1728779   0.7524789   0.8034239  )
        47           N   tau(  47) = (   0.7109102   0.2120566   0.8449633  )
        48           N   tau(  48) = (   0.6927792   0.7427368   0.8242035  )
        49           N   tau(  49) = (   0.3172744   0.2159136   0.3233822  )
        50           N   tau(  50) = (   0.8553773   0.2102024   0.2986034  )
        51           N   tau(  51) = (   0.3464101   0.7226394   0.2521866  )
        52           N   tau(  52) = (   0.3458970   0.1931797   0.7290096  )
        53           N   tau(  53) = (   0.8575638   0.7603580   0.2608530  )
        54           N   tau(  54) = (   0.3379696   0.7377212   0.7206568  )
        55           N   tau(  55) = (   0.8193499   0.2173102   0.6943587  )
        56           N   tau(  56) = (   0.8476152   0.6993625   0.7329370  )
        57           H   tau(  57) = (   0.2259859   0.3428677   0.2744226  )
        58           H   tau(  58) = (   0.7540131   0.3389269   0.3076306  )
        59           H   tau(  59) = (   0.2487325   0.8377418   0.3171298  )
        60           H   tau(  60) = (   0.2495269   0.3228817   0.6966849  )
        61           H   tau(  61) = (   0.7624562   0.8930019   0.2630485  )
        62           H   tau(  62) = (   0.2598147   0.8798794   0.7479158  )
        63           H   tau(  63) = (   0.7459407   0.3484153   0.7600690  )
        64           H   tau(  64) = (   0.7545105   0.8304201   0.6992661  )
        65           H   tau(  65) = (   0.2098452   0.1312284   0.1643529  )
        66           H   tau(  66) = (   0.7012539   0.1490316   0.1717863  )
        67           H   tau(  67) = (   0.1607216   0.6288196   0.2419067  )
        68           H   tau(  68) = (   0.1984544   0.1737607   0.8754655  )
        69           H   tau(  69) = (   0.6626113   0.6754638   0.2501128  )
        70           H   tau(  70) = (   0.1598546   0.6721997   0.8101072  )
        71           H   tau(  71) = (   0.7150067   0.1315113   0.8551751  )
        72           H   tau(  72) = (   0.6978183   0.6782895   0.8744728  )
        73           H   tau(  73) = (   0.1422771   0.2489957   0.1368968  )
        74           H   tau(  74) = (   0.6270051   0.2662322   0.1945513  )
        75           H   tau(  75) = (   0.0962257   0.7342725   0.3063989  )
        76           H   tau(  76) = (   0.1294160   0.2874140   0.8315042  )
        77           H   tau(  77) = (   0.6047208   0.8028636   0.2528479  )
        78           H   tau(  78) = (   0.1140908   0.8009249   0.8312769  )
        79           H   tau(  79) = (   0.6657442   0.2532143   0.8985709  )
        80           H   tau(  80) = (   0.6299121   0.7936121   0.8320475  )
        81           H   tau(  81) = (   0.3424295   0.1387404   0.3150921  )
        82           H   tau(  82) = (   0.8738657   0.1357206   0.2720051  )
        83           H   tau(  83) = (   0.3565748   0.6500440   0.2171360  )
        84           H   tau(  84) = (   0.3639077   0.1282135   0.7741463  )
        85           H   tau(  85) = (   0.8696125   0.6795329   0.2574327  )
        86           H   tau(  86) = (   0.3445681   0.6566547   0.7298274  )
        87           H   tau(  87) = (   0.8390337   0.1380837   0.6959352  )
        88           H   tau(  88) = (   0.8618313   0.6319050   0.7759423  )
        89           H   tau(  89) = (   0.3504395   0.2599744   0.3830780  )
        90           H   tau(  90) = (   0.9085115   0.2439584   0.3502485  )
        91           H   tau(  91) = (   0.4092262   0.7740698   0.2564632  )
        92           H   tau(  92) = (   0.3988379   0.2135884   0.6700153  )
        93           H   tau(  93) = (   0.9229884   0.8087106   0.2631241  )
        94           H   tau(  94) = (   0.3990429   0.7749173   0.6818978  )
        95           H   tau(  95) = (   0.8503035   0.2629257   0.6346148  )
        96           H   tau(  96) = (   0.8994360   0.7173661   0.6724887  )

     number of k points=    32
                       cart. coord. in units 2pi/alat
        k(    1) = (   0.1234460   0.1227459   0.1230785), wk =   0.0625000
        k(    2) = (   0.1234460   0.1227459   0.3692356), wk =   0.0625000
        k(    3) = (   0.1234460   0.3682378   0.1230785), wk =   0.0625000
        k(    4) = (   0.1234460   0.3682378   0.3692356), wk =   0.0625000
        k(    5) = (   0.3703381   0.1227459   0.1230785), wk =   0.0625000
        k(    6) = (   0.3703381   0.1227459   0.3692356), wk =   0.0625000
        k(    7) = (   0.3703381   0.3682378   0.1230785), wk =   0.0625000
        k(    8) = (   0.3703381   0.3682378   0.3692356), wk =   0.0625000
        k(    9) = (  -0.1234460  -0.1227459   0.1230785), wk =   0.0625000
        k(   10) = (  -0.1234460   0.1227459  -0.1230785), wk =   0.0625000
        k(   11) = (   0.1234460  -0.1227459  -0.1230785), wk =   0.0625000
        k(   12) = (  -0.1234460  -0.1227459   0.3692356), wk =   0.0625000
        k(   13) = (  -0.1234460   0.1227459  -0.3692356), wk =   0.0625000
        k(   14) = (   0.1234460  -0.1227459  -0.3692356), wk =   0.0625000
        k(   15) = (  -0.1234460  -0.3682378   0.1230785), wk =   0.0625000
        k(   16) = (  -0.1234460   0.3682378  -0.1230785), wk =   0.0625000
        k(   17) = (   0.1234460  -0.3682378  -0.1230785), wk =   0.0625000
        k(   18) = (  -0.1234460  -0.3682378   0.3692356), wk =   0.0625000
        k(   19) = (  -0.1234460   0.3682378  -0.3692356), wk =   0.0625000
        k(   20) = (   0.1234460  -0.3682378  -0.3692356), wk =   0.0625000
        k(   21) = (  -0.3703381  -0.1227459   0.1230785), wk =   0.0625000
        k(   22) = (  -0.3703381   0.1227459  -0.1230785), wk =   0.0625000
        k(   23) = (   0.3703381  -0.1227459  -0.1230785), wk =   0.0625000
        k(   24) = (  -0.3703381  -0.1227459   0.3692356), wk =   0.0625000
        k(   25) = (  -0.3703381   0.1227459  -0.3692356), wk =   0.0625000
        k(   26) = (   0.3703381  -0.1227459  -0.3692356), wk =   0.0625000
        k(   27) = (  -0.3703381  -0.3682378   0.1230785), wk =   0.0625000
        k(   28) = (  -0.3703381   0.3682378  -0.1230785), wk =   0.0625000
        k(   29) = (   0.3703381  -0.3682378  -0.1230785), wk =   0.0625000
        k(   30) = (  -0.3703381  -0.3682378   0.3692356), wk =   0.0625000
        k(   31) = (  -0.3703381   0.3682378  -0.3692356), wk =   0.0625000
        k(   32) = (   0.3703381  -0.3682378  -0.3692356), wk =   0.0625000

     Dense  grid:  2482015 G-vectors     FFT dimensions: ( 180, 180, 180)

     Estimated max dynamical RAM per process >       1.82 GB

     Estimated total dynamical RAM >      58.15 GB

     Initial potential from superposition of free atoms

     starting charge  431.97851, renormalised to  432.00000
     Starting wfcs are  304 randomized atomic wfcs
     Checking if some PAW data can be deallocated... 

     total cpu time spent up to now is     1111.0 secs

     Self-consistent Calculation

     iteration #  1     ecut=   120.00 Ry     beta= 0.70
     Davidson diagonalization with overlap
     ethr =  1.00E-02,  avg # of iterations =  2.0

     total cpu time spent up to now is     3363.3 secs

     total energy              =  -16705.00004078 Ry
     Harris-Foulkes estimate   =  -16709.27300232 Ry
     estimated scf accuracy    <       6.76983333 Ry

     iteration #  2     ecut=   120.00 Ry     beta= 0.70
     Davidson diagonalization with overlap
     ethr =  1.57E-03,  avg # of iterations =  4.0

     total cpu time spent up to now is     6368.2 secs

     total energy              =  -16706.53773744 Ry
     Harris-Foulkes estimate   =  -16708.63018219 Ry
     estimated scf accuracy    <       3.90118929 Ry

     iteration #  3     ecut=   120.00 Ry     beta= 0.70
     Davidson diagonalization with overlap
     ethr =  9.03E-04,  avg # of iterations =  3.0

     total cpu time spent up to now is     8695.0 secs

     total energy              =  -16707.40276342 Ry
     Harris-Foulkes estimate   =  -16707.47087459 Ry
     estimated scf accuracy    <       0.14769915 Ry

     iteration #  4     ecut=   120.00 Ry     beta= 0.70
     Davidson diagonalization with overlap
     ethr =  3.42E-05,  avg # of iterations =  4.0

     total cpu time spent up to now is    11837.9 secs

     total energy              =  -16707.44667012 Ry
     Harris-Foulkes estimate   =  -16707.46654470 Ry
     estimated scf accuracy    <       0.03958336 Ry

     iteration #  5     ecut=   120.00 Ry     beta= 0.70
     Davidson diagonalization with overlap
     ethr =  9.16E-06,  avg # of iterations =  3.0

     total cpu time spent up to now is    14357.3 secs

     total energy              =  -16707.45415895 Ry
     Harris-Foulkes estimate   =  -16707.45550722 Ry
     estimated scf accuracy    <       0.00248854 Ry

     iteration #  6     ecut=   120.00 Ry     beta= 0.70
     Davidson diagonalization with overlap
     ethr =  5.76E-07,  avg # of iterations =  4.0

     total cpu time spent up to now is    17433.3 secs

     total energy              =  -16707.45485316 Ry
     Harris-Foulkes estimate   =  -16707.45545512 Ry
     estimated scf accuracy    <       0.00135105 Ry

     iteration #  7     ecut=   120.00 Ry     beta= 0.70
     Davidson diagonalization with overlap
     ethr =  3.13E-07,  avg # of iterations =  3.5

     total cpu time spent up to now is    19912.8 secs

     total energy              =  -16707.45513725 Ry
     Harris-Foulkes estimate   =  -16707.45517510 Ry
     estimated scf accuracy    <       0.00008559 Ry

     iteration #  8     ecut=   120.00 Ry     beta= 0.70
     Davidson diagonalization with overlap
     ethr =  1.98E-08,  avg # of iterations =  4.0

     total cpu time spent up to now is    22803.4 secs

     total energy              =  -16707.45516189 Ry
     Harris-Foulkes estimate   =  -16707.45517174 Ry
     estimated scf accuracy    <       0.00002137 Ry

     iteration #  9     ecut=   120.00 Ry     beta= 0.70
     Davidson diagonalization with overlap
     ethr =  4.95E-09,  avg # of iterations =  3.9

     total cpu time spent up to now is    25460.8 secs

     total energy              =  -16707.45516638 Ry
     Harris-Foulkes estimate   =  -16707.45516757 Ry
     estimated scf accuracy    <       0.00000251 Ry

     iteration # 10     ecut=   120.00 Ry     beta= 0.70
     Davidson diagonalization with overlap
     ethr =  5.81E-10,  avg # of iterations =  4.0

     total cpu time spent up to now is    28179.0 secs

     total energy              =  -16707.45516700 Ry
     Harris-Foulkes estimate   =  -16707.45516717 Ry
     estimated scf accuracy    <       0.00000037 Ry

     iteration # 11     ecut=   120.00 Ry     beta= 0.70
     Davidson diagonalization with overlap
     ethr =  8.56E-11,  avg # of iterations =  4.0

     total cpu time spent up to now is    30963.6 secs

     End of self-consistent calculation

          k = 0.1234 0.1227 0.1231 (310232 PWs)   bands (ev):

   -17.9994 -17.9415 -17.8898 -17.8817 -17.8543 -17.8509 -17.8459 -17.7921
   -15.7796 -15.7211 -15.6860 -15.6835 -15.6582 -15.6289 -15.6117 -15.5332
   -14.3119 -14.2939 -14.2880 -14.2797 -14.2762 -14.2721 -14.2614 -14.2591
   -14.2586 -14.2554 -14.2534 -14.2528 -14.2435 -14.2434 -14.2418 -14.2411
   -14.2379 -14.2360 -14.2349 -14.2269 -14.2218 -14.2217 -14.2214 -14.2174
   -14.2161 -14.2146 -14.2129 -14.2102 -14.2088 -14.2046 -14.2032 -14.2007
   -14.1973 -14.1912 -14.1891 -14.1868 -14.1853 -14.1837 -14.1814 -14.1776
    -9.8309  -9.7775  -9.7344  -9.6973  -9.6657  -9.6430  -9.6305  -9.5781
    -9.5342  -9.4703  -9.4188  -9.3795  -9.3679  -9.3062  -9.2670  -9.2474
    -9.2257  -9.2047  -9.1621  -9.1349  -9.0950  -9.0677  -9.0548  -9.0472
    -9.0237  -9.0197  -9.0009  -8.9856  -8.9530  -8.9072  -8.8796  -8.8509
    -7.8574  -7.7420  -7.7077  -7.7001  -7.6856  -7.6728  -7.6502  -7.6164
    -7.1332  -7.1263  -7.0827  -7.0710  -7.0416  -7.0247  -7.0111  -6.9064
    -5.8731  -5.5470  -5.4610  -5.4290  -5.4008  -5.3800  -5.3685  -5.3489
    -5.3191  -5.3025  -5.2952  -5.2536  -5.0353  -4.9790  -4.9637  -4.5796
    -3.9445  -3.8688  -3.8529  -3.8302  -3.8186  -3.8117  -3.8075  -3.7512
    -3.3535  -3.3392  -3.2899  -3.2811  -3.2691  -3.2527  -3.2465  -3.1890
    -0.8873  -0.8733  -0.8132  -0.7761  -0.7180  -0.7080  -0.6832  -0.6479
    -0.6116  -0.5860  -0.5171  -0.4879  -0.2191  -0.1842  -0.1437  -0.1256
    -0.0928  -0.0830  -0.0323   0.0234   0.2988   0.3920   0.4518   0.4835
     0.4930   0.5130   0.5412   0.5696   0.5820   0.6514   0.6813   0.7453
     0.7699   0.8225   0.8408   0.8650   0.8764   0.9150   0.9379   0.9720
     0.9957   1.0152   1.0283   1.0446   1.0600   1.0941   1.1023   1.1126
     1.1238   1.1491   1.1630   1.1846   1.2124   1.2217   1.2451   1.2534
     1.2769   1.2927   1.3075   1.3224   1.3524   1.3723   1.3938   1.4157
     1.4264   1.4626   1.4757   1.4910   1.5317   1.5385   1.5908   1.6178
     1.6478   1.7089   1.7218   1.7767   1.8269   1.8478   1.8826   2.1177

          k = 0.1234 0.1227 0.3692 (310247 PWs)   bands (ev):

   -17.9994 -17.9415 -17.8898 -17.8817 -17.8543 -17.8509 -17.8459 -17.7921
   -15.7796 -15.7211 -15.6859 -15.6835 -15.6583 -15.6289 -15.6117 -15.5332
   -14.3115 -14.2937 -14.2877 -14.2803 -14.2760 -14.2721 -14.2614 -14.2591
   -14.2587 -14.2554 -14.2534 -14.2526 -14.2435 -14.2434 -14.2418 -14.2411
   -14.2374 -14.2361 -14.2360 -14.2269 -14.2218 -14.2215 -14.2206 -14.2172
   -14.2161 -14.2155 -14.2129 -14.2103 -14.2091 -14.2046 -14.2032 -14.2007
   -14.1973 -14.1912 -14.1891 -14.1868 -14.1853 -14.1838 -14.1814 -14.1776
    -9.8094  -9.7689  -9.7369  -9.7041  -9.6870  -9.6560  -9.6303  -9.5849
    -9.5260  -9.4614  -9.4261  -9.3928  -9.3545  -9.2993  -9.2869  -9.2721
    -9.2173  -9.1907  -9.1527  -9.1190  -9.0888  -9.0586  -9.0537  -9.0425
    -9.0237  -9.0151  -9.0027  -8.9764  -8.9615  -8.9263  -8.8831  -8.8520
    -7.8574  -7.7415  -7.7059  -7.7013  -7.6873  -7.6727  -7.6505  -7.6164
    -7.1331  -7.1263  -7.0822  -7.0711  -7.0419  -7.0248  -7.0111  -6.9064
    -5.7647  -5.6005  -5.5328  -5.3990  -5.3713  -5.3542  -5.3452  -5.3168
    -5.3011  -5.2962  -5.2686  -5.2502  -5.1584  -5.0973  -4.8694  -4.7042
    -3.9440  -3.8665  -3.8486  -3.8333  -3.8179  -3.8158  -3.8083  -3.7511
    -3.3533  -3.3388  -3.2882  -3.2823  -3.2682  -3.2534  -3.2471  -3.1892
    -0.8558  -0.8066  -0.7500  -0.7088  -0.6846  -0.6236  -0.6001  -0.5652
    -0.4674  -0.4194  -0.3017  -0.2338  -0.1886  -0.1655  -0.1372  -0.1282
    -0.0974  -0.0629  -0.0267   0.0220   0.1248   0.2324   0.2874   0.3485
     0.3998   0.4188   0.4579   0.4943   0.5203   0.5499   0.5661   0.6072
     0.6465   0.7083   0.8489   0.8731   0.8897   0.9079   0.9276   0.9446
     0.9688   0.9836   1.0015   1.0308   1.0552   1.0693   1.0799   1.1359
     1.1538   1.1653   1.1862   1.1930   1.2246   1.2394   1.2610   1.2742
     1.2896   1.3078   1.3347   1.3426   1.3606   1.3857   1.3895   1.4117
     1.4334   1.4523   1.4613   1.4979   1.5126   1.5266   1.5529   1.5614
     1.5998   1.6770   1.6958   1.7116   1.7694   1.7957   1.8840   1.9832

          k = 0.1234 0.3682 0.1231 (310227 PWs)   bands (ev):

   -17.9994 -17.9415 -17.8898 -17.8817 -17.8543 -17.8509 -17.8459 -17.7921
   -15.7796 -15.7211 -15.6860 -15.6835 -15.6582 -15.6289 -15.6117 -15.5332
   -14.3119 -14.2937 -14.2879 -14.2796 -14.2759 -14.2721 -14.2614 -14.2584
   -14.2569 -14.2554 -14.2544 -14.2532 -14.2435 -14.2434 -14.2418 -14.2411
   -14.2385 -14.2360 -14.2351 -14.2271 -14.2219 -14.2217 -14.2215 -14.2176
   -14.2161 -14.2147 -14.2129 -14.2102 -14.2088 -14.2046 -14.2032 -14.2007
   -14.1973 -14.1912 -14.1891 -14.1868 -14.1853 -14.1837 -14.1814 -14.1776
    -9.8289  -9.7783  -9.7332  -9.6961  -9.6659  -9.6414  -9.6307  -9.5795
    -9.5343  -9.4562  -9.4099  -9.3886  -9.3612  -9.3263  -9.2888  -9.2693
    -9.2402  -9.2079  -9.1524  -9.1194  -9.0899  -9.0626  -9.0580  -9.0407
    -9.0206  -8.9983  -8.9867  -8.9730  -8.9428  -8.9182  -8.8960  -8.8681
    -7.8558  -7.7433  -7.7062  -7.6971  -7.6880  -7.6711  -7.6519  -7.6171
    -7.1330  -7.1262  -7.0827  -7.0710  -7.0418  -7.0236  -7.0122  -6.9066
    -5.7568  -5.5493  -5.5251  -5.4014  -5.3742  -5.3639  -5.3383  -5.3310
    -5.3050  -5.2969  -5.2929  -5.2493  -5.1251  -5.1051  -4.9148  -4.7289
    -3.9417  -3.8707  -3.8550  -3.8290  -3.8185  -3.8115  -3.8067  -3.7516
    -3.3538  -3.3386  -3.2892  -3.2814  -3.2695  -3.2515  -3.2483  -3.1892
    -0.8810  -0.8669  -0.7674  -0.7067  -0.6647  -0.6553  -0.5656  -0.5200
    -0.3691  -0.3169  -0.2747  -0.2022  -0.1851  -0.1648  -0.1366  -0.1180
    -0.0885  -0.0834  -0.0339   0.0193   0.2156   0.2612   0.3106   0.3404
     0.4048   0.4695   0.4848   0.4992   0.5361   0.5543   0.5884   0.6339
     0.6551   0.7310   0.7516   0.7672   0.7961   0.8729   0.9012   0.9149
     0.9554   0.9676   1.0047   1.0235   1.0628   1.0791   1.0922   1.1160
     1.1354   1.1565   1.1893   1.1959   1.2148   1.2270   1.2496   1.2741
     1.2823   1.3125   1.3292   1.3412   1.3730   1.3803   1.4115   1.4288
     1.4530   1.4624   1.4703   1.4888   1.5043   1.5172   1.5567   1.5632
     1.5950   1.6290   1.6460   1.6682   1.7181   1.7353   1.8398   1.9200

          k = 0.1234 0.3682 0.3692 (310266 PWs)   bands (ev):

   -17.9994 -17.9415 -17.8898 -17.8817 -17.8543 -17.8509 -17.8459 -17.7921
   -15.7796 -15.7211 -15.6859 -15.6835 -15.6583 -15.6289 -15.6117 -15.5332
   -14.3114 -14.2935 -14.2877 -14.2802 -14.2757 -14.2721 -14.2614 -14.2585
   -14.2570 -14.2554 -14.2543 -14.2532 -14.2435 -14.2434 -14.2418 -14.2411
   -14.2378 -14.2363 -14.2360 -14.2271 -14.2217 -14.2215 -14.2208 -14.2175
   -14.2161 -14.2156 -14.2129 -14.2103 -14.2091 -14.2046 -14.2032 -14.2007
   -14.1973 -14.1912 -14.1891 -14.1868 -14.1853 -14.1838 -14.1814 -14.1776
    -9.8093  -9.7674  -9.7352  -9.7038  -9.6858  -9.6548  -9.6312  -9.5846
    -9.5291  -9.4495  -9.4149  -9.3894  -9.3736  -9.3216  -9.2998  -9.2709
    -9.2250  -9.1946  -9.1410  -9.1241  -9.1044  -9.0632  -9.0426  -9.0278
    -9.0150  -9.0015  -8.9809  -8.9773  -8.9474  -8.9242  -8.8982  -8.8743
    -7.8557  -7.7428  -7.7035  -7.6991  -7.6896  -7.6713  -7.6521  -7.6172
    -7.1329  -7.1262  -7.0822  -7.0711  -7.0421  -7.0236  -7.0122  -6.9065
    -5.6539  -5.5514  -5.4756  -5.4202  -5.3986  -5.3717  -5.3486  -5.3322
    -5.3101  -5.2968  -5.2724  -5.2171  -5.2012  -5.0391  -5.0111  -4.8505
    -3.9414  -3.8692  -3.8512  -3.8306  -3.8205  -3.8133  -3.8067  -3.7514
    -3.3538  -3.3383  -3.2878  -3.2827  -3.2683  -3.2525  -3.2488  -3.1894
    -0.8466  -0.7566  -0.6412  -0.5991  -0.5084  -0.4509  -0.3525  -0.3336
    -0.2891  -0.2739  -0.2403  -0.2339  -0.1838  -0.1549  -0.1331  -0.1081
    -0.0957  -0.0599  -0.0307   0.0277   0.1077   0.2089   0.2352   0.2631
     0.3003   0.3327   0.3545   0.3772   0.4303   0.4956   0.5586   0.5827
     0.6322   0.6661   0.7112   0.7598   0.7855   0.8245   0.8368   0.8523
     0.8826   0.9146   0.9422   0.9682   1.0067   1.0293   1.0683   1.0975
     1.1381   1.1611   1.1792   1.2021   1.2191   1.2503   1.2630   1.2948
     1.3122   1.3390   1.3500   1.3623   1.3824   1.3973   1.4140   1.4226
     1.4339   1.4532   1.4787   1.4913   1.4964   1.5100   1.5257   1.5526
     1.5801   1.5919   1.6177   1.6544   1.6798   1.7087   1.7366   1.8160

          k = 0.3703 0.1227 0.1231 (310239 PWs)   bands (ev):

   -17.9993 -17.9415 -17.8898 -17.8817 -17.8543 -17.8511 -17.8459 -17.7921
   -15.7782 -15.7211 -15.6860 -15.6850 -15.6582 -15.6288 -15.6117 -15.5333
   -14.3114 -14.2926 -14.2895 -14.2796 -14.2764 -14.2721 -14.2614 -14.2589
   -14.2577 -14.2554 -14.2535 -14.2528 -14.2443 -14.2435 -14.2418 -14.2412
   -14.2377 -14.2361 -14.2347 -14.2259 -14.2218 -14.2217 -14.2214 -14.2182
   -14.2161 -14.2149 -14.2129 -14.2101 -14.2093 -14.2046 -14.2032 -14.2007
   -14.1973 -14.1912 -14.1891 -14.1868 -14.1853 -14.1837 -14.1814 -14.1776
    -9.8053  -9.7569  -9.7499  -9.6945  -9.6712  -9.6637  -9.6485  -9.5841
    -9.5390  -9.4740  -9.4082  -9.3708  -9.3553  -9.3188  -9.2907  -9.2467
    -9.2200  -9.1992  -9.1596  -9.1435  -9.0988  -9.0736  -9.0563  -9.0333
    -9.0194  -9.0066  -8.9854  -8.9572  -8.9404  -8.9174  -8.8955  -8.8772
    -7.8554  -7.7414  -7.7106  -7.7019  -7.6881  -7.6738  -7.6508  -7.6168
    -7.1329  -7.1253  -7.0826  -7.0694  -7.0415  -7.0245  -7.0109  -6.9065
    -5.7520  -5.5686  -5.5038  -5.4015  -5.3740  -5.3569  -5.3506  -5.3283
    -5.3199  -5.3016  -5.2674  -5.2507  -5.1693  -5.0976  -4.8830  -4.7168
    -3.9432  -3.8681  -3.8533  -3.8294  -3.8190  -3.8122  -3.8089  -3.7514
    -3.3534  -3.3377  -3.2881  -3.2826  -3.2681  -3.2534  -3.2471  -3.1914
    -0.8746  -0.7991  -0.7781  -0.7319  -0.6858  -0.6486  -0.6202  -0.5536
    -0.4302  -0.3313  -0.2818  -0.2440  -0.1853  -0.1742  -0.1314  -0.0986
    -0.0874  -0.0387  -0.0246   0.0155   0.1469   0.2560   0.3113   0.3722
     0.4123   0.4433   0.4687   0.5156   0.5297   0.5513   0.5795   0.6488
     0.6737   0.7378   0.7960   0.8082   0.8320   0.8661   0.8968   0.9221
     0.9604   0.9839   1.0107   1.0408   1.0416   1.0686   1.0906   1.1255
     1.1401   1.1525   1.1683   1.1904   1.2081   1.2380   1.2498   1.2766
     1.2856   1.3169   1.3243   1.3588   1.3724   1.3848   1.4151   1.4305
     1.4459   1.4586   1.4847   1.4924   1.5094   1.5400   1.5708   1.5965
     1.6152   1.6229   1.6350   1.6842   1.7160   1.7594   1.8458   1.9215

          k = 0.3703 0.1227 0.3692 (310236 PWs)   bands (ev):

   -17.9993 -17.9415 -17.8898 -17.8817 -17.8543 -17.8511 -17.8459 -17.7921
   -15.7782 -15.7211 -15.6859 -15.6850 -15.6583 -15.6288 -15.6117 -15.5333
   -14.3110 -14.2924 -14.2893 -14.2802 -14.2761 -14.2721 -14.2614 -14.2590
   -14.2577 -14.2554 -14.2534 -14.2527 -14.2443 -14.2435 -14.2418 -14.2412
   -14.2371 -14.2361 -14.2358 -14.2259 -14.2218 -14.2215 -14.2206 -14.2177
   -14.2162 -14.2159 -14.2129 -14.2103 -14.2097 -14.2046 -14.2032 -14.2007
   -14.1973 -14.1912 -14.1891 -14.1868 -14.1853 -14.1838 -14.1814 -14.1776
    -9.7875  -9.7536  -9.7355  -9.7009  -9.6896  -9.6682  -9.6620  -9.5909
    -9.5253  -9.4585  -9.4371  -9.3987  -9.3450  -9.3060  -9.2965  -9.2725
    -9.2039  -9.1917  -9.1521  -9.1170  -9.0949  -9.0636  -9.0508  -9.0427
    -9.0228  -8.9944  -8.9850  -8.9580  -8.9447  -8.9270  -8.9040  -8.8793
    -7.8557  -7.7410  -7.7100  -7.7014  -7.6901  -7.6738  -7.6514  -7.6167
    -7.1329  -7.1252  -7.0820  -7.0695  -7.0418  -7.0245  -7.0109  -6.9064
    -5.6464  -5.5125  -5.4734  -5.4627  -5.3993  -5.3717  -5.3532  -5.3352
    -5.3189  -5.3043  -5.2896  -5.2534  -5.1666  -5.0093  -4.9976  -4.8406
    -3.9428  -3.8662  -3.8486  -3.8323  -3.8191  -3.8156  -3.8098  -3.7512
    -3.3533  -3.3376  -3.2863  -3.2835  -3.2684  -3.2534  -3.2470  -3.1914
    -0.7766  -0.7377  -0.7012  -0.6541  -0.5140  -0.4832  -0.4038  -0.3773
    -0.3257  -0.2843  -0.2487  -0.1968  -0.1829  -0.1685  -0.1233  -0.0944
    -0.0843  -0.0631  -0.0266   0.0102   0.1139   0.2003   0.2259   0.2713
     0.2995   0.3200   0.3693   0.4109   0.4433   0.4807   0.5260   0.5474
     0.6732   0.7069   0.7409   0.7666   0.7942   0.8219   0.8360   0.8517
     0.9167   0.9357   0.9502   0.9779   0.9940   1.0326   1.0610   1.0934
     1.1243   1.1781   1.1921   1.2062   1.2403   1.2503   1.2630   1.2954
     1.3099   1.3285   1.3413   1.3670   1.3797   1.3968   1.4037   1.4251
     1.4427   1.4558   1.4783   1.4870   1.5027   1.5141   1.5313   1.5619
     1.5801   1.5869   1.6224   1.6759   1.6944   1.7579   1.7698   1.8057

          k = 0.3703 0.3682 0.1231 (310237 PWs)   bands (ev):

   -17.9993 -17.9415 -17.8898 -17.8817 -17.8543 -17.8511 -17.8459 -17.7921
   -15.7781 -15.7211 -15.6860 -15.6850 -15.6582 -15.6288 -15.6117 -15.5333
   -14.3114 -14.2924 -14.2895 -14.2795 -14.2760 -14.2721 -14.2614 -14.2574
   -14.2569 -14.2554 -14.2545 -14.2533 -14.2444 -14.2435 -14.2418 -14.2412
   -14.2382 -14.2361 -14.2348 -14.2262 -14.2219 -14.2217 -14.2215 -14.2184
   -14.2162 -14.2151 -14.2129 -14.2101 -14.2094 -14.2046 -14.2032 -14.2007
   -14.1973 -14.1912 -14.1891 -14.1868 -14.1853 -14.1837 -14.1814 -14.1776
    -9.8051  -9.7526  -9.7520  -9.6938  -9.6707  -9.6621  -9.6479  -9.5825
    -9.5398  -9.4662  -9.4032  -9.3841  -9.3517  -9.3298  -9.2911  -9.2729
    -9.2314  -9.1981  -9.1701  -9.1276  -9.1033  -9.0670  -9.0514  -9.0244
    -8.9982  -8.9820  -8.9712  -8.9585  -8.9459  -8.9307  -8.9071  -8.8899
    -7.8540  -7.7426  -7.7081  -7.7007  -7.6901  -7.6715  -7.6525  -7.6176
    -7.1328  -7.1254  -7.0825  -7.0691  -7.0418  -7.0232  -7.0123  -6.9065
    -5.6387  -5.5055  -5.4633  -5.4244  -5.3936  -5.3684  -5.3505  -5.3352
    -5.3186  -5.3038  -5.2617  -5.2353  -5.2186  -5.0624  -5.0197  -4.8628
    -3.9409  -3.8692  -3.8556  -3.8291  -3.8178  -3.8124  -3.8078  -3.7517
    -3.3539  -3.3371  -3.2877  -3.2829  -3.2683  -3.2524  -3.2487  -3.1915
    -0.8672  -0.7687  -0.6735  -0.5682  -0.5262  -0.4234  -0.3587  -0.3423
    -0.3040  -0.2674  -0.2213  -0.1970  -0.1688  -0.1417  -0.1113  -0.1006
    -0.0789  -0.0338  -0.0242   0.0091   0.0744   0.2253   0.2511   0.2543
     0.3403   0.3661   0.3997   0.4478   0.4652   0.4883   0.5256   0.5459
     0.5935   0.6565   0.7132   0.7383   0.7869   0.8305   0.8608   0.8966
     0.9256   0.9448   0.9612   0.9840   1.0093   1.0462   1.0792   1.1042
     1.1145   1.1342   1.1553   1.1645   1.1862   1.2219   1.2401   1.2641
     1.2789   1.2947   1.3186   1.3396   1.3709   1.3757   1.4066   1.4208
     1.4476   1.4600   1.4809   1.5095   1.5261   1.5324   1.5513   1.5633
     1.5812   1.5977   1.6051   1.6255   1.6468   1.6747   1.6940   1.7300

          k = 0.3703 0.3682 0.3692 (310323 PWs)   bands (ev):

   -17.9993 -17.9415 -17.8898 -17.8817 -17.8543 -17.8511 -17.8459 -17.7921
   -15.7781 -15.7211 -15.6859 -15.6850 -15.6583 -15.6288 -15.6117 -15.5333
   -14.3110 -14.2922 -14.2893 -14.2801 -14.2758 -14.2721 -14.2614 -14.2574
   -14.2570 -14.2554 -14.2543 -14.2532 -14.2444 -14.2435 -14.2418 -14.2412
   -14.2375 -14.2361 -14.2360 -14.2262 -14.2217 -14.2215 -14.2208 -14.2179
   -14.2164 -14.2159 -14.2129 -14.2103 -14.2097 -14.2046 -14.2032 -14.2007
   -14.1973 -14.1912 -14.1891 -14.1868 -14.1853 -14.1838 -14.1814 -14.1776
    -9.7887  -9.7462  -9.7399  -9.7014  -9.6873  -9.6663  -9.6630  -9.5858
    -9.5308  -9.4461  -9.4285  -9.3915  -9.3743  -9.3245  -9.3089  -9.2647
    -9.2240  -9.1823  -9.1415  -9.1314  -9.1070  -9.0655  -9.0337  -9.0205
    -9.0012  -8.9818  -8.9766  -8.9564  -8.9446  -8.9373  -8.9144  -8.8952
    -7.8542  -7.7421  -7.7068  -7.7004  -7.6927  -7.6717  -7.6529  -7.6173
    -7.1327  -7.1254  -7.0820  -7.0692  -7.0421  -7.0233  -7.0123  -6.9065
    -5.5402  -5.5042  -5.4008  -5.3831  -5.3710  -5.3619  -5.3459  -5.3316
    -5.3220  -5.3042  -5.2908  -5.2541  -5.1877  -5.1414  -5.1321  -4.9829
    -3.9406  -3.8676  -3.8520  -3.8308  -3.8193  -3.8131  -3.8090  -3.7515
    -3.3539  -3.3370  -3.2863  -3.2838  -3.2683  -3.2524  -3.2486  -3.1915
    -0.5725  -0.5162  -0.4788  -0.4221  -0.3780  -0.3313  -0.3212  -0.3150
    -0.2832  -0.2483  -0.2334  -0.1903  -0.1612  -0.1494  -0.1087  -0.0896
    -0.0778  -0.0520  -0.0227   0.0039   0.0703   0.1753   0.1955   0.2183
     0.2521   0.2773   0.2986   0.3243   0.3522   0.3858   0.4395   0.4882
     0.6394   0.6881   0.7002   0.7513   0.7780   0.7975   0.8180   0.8445
     0.8632   0.8971   0.9198   0.9343   0.9564   0.9921   1.0076   1.0296
     1.0748   1.0884   1.1010   1.1151   1.1482   1.1669   1.2075   1.2287
     1.2843   1.3199   1.3361   1.3508   1.3801   1.4082   1.4172   1.4312
     1.4482   1.4567   1.4665   1.4957   1.5073   1.5255   1.5325   1.5489
     1.5575   1.5776   1.5876   1.6056   1.6317   1.6526   1.6774   1.7044

          k =-0.1234-0.1227 0.1231 (310232 PWs)   bands (ev):

   -17.9994 -17.9415 -17.8898 -17.8817 -17.8543 -17.8509 -17.8459 -17.7921
   -15.7796 -15.7211 -15.6860 -15.6835 -15.6582 -15.6289 -15.6117 -15.5332
   -14.3119 -14.2939 -14.2880 -14.2797 -14.2762 -14.2721 -14.2614 -14.2591
   -14.2586 -14.2554 -14.2534 -14.2528 -14.2435 -14.2434 -14.2418 -14.2411
   -14.2379 -14.2360 -14.2349 -14.2269 -14.2218 -14.2217 -14.2214 -14.2174
   -14.2161 -14.2146 -14.2129 -14.2102 -14.2088 -14.2046 -14.2032 -14.2007
   -14.1973 -14.1912 -14.1891 -14.1868 -14.1853 -14.1837 -14.1814 -14.1776
    -9.8302  -9.7769  -9.7334  -9.6981  -9.6678  -9.6426  -9.6316  -9.5797
    -9.5351  -9.4697  -9.4111  -9.3854  -9.3644  -9.3081  -9.2687  -9.2457
    -9.2203  -9.2044  -9.1607  -9.1427  -9.1000  -9.0680  -9.0516  -9.0415
    -9.0284  -9.0187  -8.9999  -8.9862  -8.9542  -8.9060  -8.8796  -8.8505
    -7.8573  -7.7420  -7.7077  -7.7002  -7.6852  -7.6729  -7.6503  -7.6165
    -7.1332  -7.1263  -7.0827  -7.0710  -7.0416  -7.0247  -7.0111  -6.9064
    -5.8729  -5.5458  -5.4623  -5.4295  -5.3994  -5.3836  -5.3686  -5.3509
    -5.3173  -5.3013  -5.2947  -5.2515  -5.0350  -4.9804  -4.9631  -4.5799
    -3.9445  -3.8687  -3.8529  -3.8305  -3.8187  -3.8100  -3.8088  -3.7512
    -3.3536  -3.3391  -3.2901  -3.2810  -3.2695  -3.2525  -3.2463  -3.1890
    -0.8984  -0.8635  -0.8118  -0.7757  -0.7229  -0.7092  -0.6795  -0.6475
    -0.6090  -0.5866  -0.5173  -0.4866  -0.2151  -0.1823  -0.1446  -0.1255
    -0.0966  -0.0830  -0.0318   0.0247   0.2988   0.3998   0.4525   0.4797
     0.4986   0.5050   0.5302   0.5709   0.5876   0.6476   0.6755   0.7532
     0.7580   0.8133   0.8374   0.8585   0.8697   0.9242   0.9460   0.9607
     0.9948   1.0165   1.0293   1.0538   1.0737   1.0940   1.1058   1.1215
     1.1416   1.1506   1.1630   1.1839   1.2026   1.2205   1.2304   1.2544
     1.2790   1.2863   1.3041   1.3320   1.3469   1.3834   1.3906   1.4123
     1.4233   1.4603   1.4746   1.5032   1.5276   1.5426   1.5941   1.6150
     1.6453   1.7084   1.7232   1.7795   1.8195   1.8492   1.8838   2.1159

          k =-0.1234 0.1227-0.1231 (310232 PWs)   bands (ev):

   -17.9994 -17.9415 -17.8898 -17.8817 -17.8543 -17.8509 -17.8459 -17.7921
   -15.7796 -15.7211 -15.6860 -15.6835 -15.6582 -15.6289 -15.6117 -15.5332
   -14.3119 -14.2939 -14.2880 -14.2797 -14.2762 -14.2721 -14.2614 -14.2591
   -14.2586 -14.2554 -14.2534 -14.2528 -14.2435 -14.2434 -14.2418 -14.2411
   -14.2379 -14.2360 -14.2349 -14.2269 -14.2218 -14.2217 -14.2214 -14.2174
   -14.2161 -14.2146 -14.2129 -14.2102 -14.2088 -14.2046 -14.2032 -14.2007
   -14.1973 -14.1912 -14.1891 -14.1868 -14.1853 -14.1837 -14.1814 -14.1776
    -9.8311  -9.7775  -9.7344  -9.6968  -9.6668  -9.6425  -9.6290  -9.5789
    -9.5341  -9.4701  -9.4199  -9.3820  -9.3672  -9.3054  -9.2684  -9.2469
    -9.2222  -9.1958  -9.1615  -9.1451  -9.1008  -9.0717  -9.0535  -9.0336
    -9.0279  -9.0197  -8.9998  -8.9905  -8.9506  -8.9069  -8.8792  -8.8511
    -7.8574  -7.7420  -7.7080  -7.7000  -7.6851  -7.6731  -7.6503  -7.6164
    -7.1332  -7.1262  -7.0827  -7.0711  -7.0416  -7.0247  -7.0110  -6.9065
    -5.8732  -5.5460  -5.4630  -5.4319  -5.3992  -5.3815  -5.3657  -5.3504
    -5.3194  -5.3003  -5.2950  -5.2518  -5.0356  -4.9794  -4.9637  -4.5803
    -3.9442  -3.8691  -3.8530  -3.8304  -3.8186  -3.8103  -3.8085  -3.7512
    -3.3534  -3.3391  -3.2901  -3.2810  -3.2690  -3.2529  -3.2464  -3.1890
    -0.8822  -0.8633  -0.8092  -0.7693  -0.7255  -0.7212  -0.6810  -0.6482
    -0.6182  -0.5886  -0.5204  -0.4898  -0.2165  -0.1846  -0.1484  -0.1258
    -0.0923  -0.0797  -0.0323   0.0233   0.2984   0.3987   0.4494   0.4870
     0.4965   0.5157   0.5367   0.5768   0.5867   0.6489   0.6840   0.7279
     0.7532   0.8218   0.8485   0.8715   0.9021   0.9203   0.9267   0.9520
     0.9919   1.0121   1.0317   1.0495   1.0668   1.0843   1.1032   1.1112
     1.1303   1.1492   1.1742   1.1838   1.2135   1.2258   1.2369   1.2645
     1.2761   1.2901   1.3010   1.3276   1.3447   1.3751   1.3932   1.4146
     1.4227   1.4582   1.4768   1.4920   1.5366   1.5422   1.5902   1.6186
     1.6508   1.7148   1.7221   1.7794   1.8287   1.8452   1.8704   2.1033

          k = 0.1234-0.1227-0.1231 (310232 PWs)   bands (ev):

   -17.9994 -17.9415 -17.8898 -17.8817 -17.8543 -17.8509 -17.8459 -17.7921
   -15.7796 -15.7211 -15.6860 -15.6835 -15.6582 -15.6289 -15.6117 -15.5332
   -14.3119 -14.2939 -14.2880 -14.2797 -14.2762 -14.2721 -14.2614 -14.2591
   -14.2586 -14.2554 -14.2534 -14.2528 -14.2435 -14.2434 -14.2418 -14.2411
   -14.2379 -14.2360 -14.2349 -14.2269 -14.2218 -14.2217 -14.2214 -14.2174
   -14.2161 -14.2146 -14.2129 -14.2102 -14.2088 -14.2046 -14.2032 -14.2007
   -14.1973 -14.1912 -14.1891 -14.1868 -14.1853 -14.1837 -14.1814 -14.1776
    -9.8304  -9.7764  -9.7338  -9.6978  -9.6677  -9.6430  -9.6309  -9.5820
    -9.5346  -9.4671  -9.4108  -9.3849  -9.3684  -9.3064  -9.2595  -9.2454
    -9.2337  -9.1984  -9.1634  -9.1474  -9.0980  -9.0680  -9.0520  -9.0341
    -9.0289  -9.0219  -8.9979  -8.9883  -8.9531  -8.9070  -8.8794  -8.8507
    -7.8573  -7.7420  -7.7079  -7.7000  -7.6852  -7.6731  -7.6503  -7.6165
    -7.1332  -7.1263  -7.0827  -7.0710  -7.0416  -7.0247  -7.0110  -6.9065
    -5.8732  -5.5469  -5.4619  -5.4299  -5.3976  -5.3817  -5.3669  -5.3495
    -5.3198  -5.3020  -5.2952  -5.2537  -5.0346  -4.9796  -4.9636  -4.5801
    -3.9442  -3.8690  -3.8533  -3.8301  -3.8186  -3.8107  -3.8081  -3.7512
    -3.3536  -3.3392  -3.2901  -3.2811  -3.2696  -3.2525  -3.2461  -3.1889
    -0.9029  -0.8499  -0.8046  -0.7752  -0.7251  -0.7143  -0.6818  -0.6481
    -0.6169  -0.5881  -0.5193  -0.4851  -0.2187  -0.1847  -0.1468  -0.1284
    -0.0929  -0.0765  -0.0335   0.0235   0.2996   0.3993   0.4532   0.4835
     0.4952   0.5164   0.5280   0.5693   0.5811   0.6609   0.6843   0.7471
     0.7505   0.8174   0.8526   0.8657   0.8799   0.9054   0.9397   0.9491
     0.9940   1.0042   1.0376   1.0611   1.0726   1.0883   1.1084   1.1185
     1.1267   1.1513   1.1697   1.1765   1.1989   1.2345   1.2456   1.2554
     1.2763   1.2935   1.3036   1.3299   1.3490   1.3704   1.3882   1.4193
     1.4262   1.4573   1.4723   1.4946   1.5319   1.5485   1.5910   1.6132
     1.6468   1.7187   1.7212   1.7788   1.8294   1.8433   1.8717   2.1069

          k =-0.1234-0.1227 0.3692 (310247 PWs)   bands (ev):

   -17.9994 -17.9415 -17.8898 -17.8817 -17.8543 -17.8509 -17.8459 -17.7921
   -15.7796 -15.7211 -15.6859 -15.6835 -15.6583 -15.6289 -15.6117 -15.5332
   -14.3115 -14.2937 -14.2877 -14.2803 -14.2760 -14.2721 -14.2614 -14.2591
   -14.2587 -14.2554 -14.2534 -14.2526 -14.2435 -14.2434 -14.2418 -14.2411
   -14.2374 -14.2361 -14.2360 -14.2269 -14.2218 -14.2215 -14.2206 -14.2172
   -14.2161 -14.2155 -14.2129 -14.2103 -14.2091 -14.2046 -14.2032 -14.2007
   -14.1973 -14.1912 -14.1891 -14.1868 -14.1853 -14.1838 -14.1814 -14.1776
    -9.8082  -9.7691  -9.7347  -9.7053  -9.6895  -9.6556  -9.6317  -9.5861
    -9.5277  -9.4583  -9.4229  -9.3944  -9.3511  -9.3088  -9.2889  -9.2560
    -9.2258  -9.1822  -9.1622  -9.1155  -9.0971  -9.0569  -9.0455  -9.0426
    -9.0267  -9.0153  -9.0040  -8.9752  -8.9649  -8.9236  -8.8833  -8.8515
    -7.8573  -7.7416  -7.7058  -7.7015  -7.6869  -7.6729  -7.6506  -7.6166
    -7.1332  -7.1263  -7.0822  -7.0711  -7.0419  -7.0248  -7.0111  -6.9064
    -5.7644  -5.5993  -5.5345  -5.3987  -5.3730  -5.3540  -5.3429  -5.3208
    -5.3040  -5.2957  -5.2761  -5.2347  -5.1560  -5.1023  -4.8688  -4.7049
    -3.9440  -3.8665  -3.8485  -3.8337  -3.8184  -3.8145  -3.8090  -3.7511
    -3.3535  -3.3388  -3.2884  -3.2822  -3.2687  -3.2531  -3.2470  -3.1891
    -0.8549  -0.8064  -0.7564  -0.7073  -0.6807  -0.6288  -0.5936  -0.5743
    -0.4696  -0.4105  -0.2978  -0.2230  -0.1909  -0.1600  -0.1438  -0.1208
    -0.0962  -0.0671  -0.0303   0.0274   0.1148   0.2282   0.2747   0.3498
     0.3947   0.4375   0.4559   0.4833   0.5203   0.5501   0.5710   0.6139
     0.6386   0.7016   0.8352   0.8657   0.8898   0.9158   0.9339   0.9577
     0.9723   0.9836   1.0058   1.0180   1.0497   1.0767   1.1041   1.1218
     1.1578   1.1727   1.1852   1.1987   1.2105   1.2364   1.2558   1.2755
     1.2816   1.3027   1.3320   1.3540   1.3613   1.3835   1.4048   1.4151
     1.4294   1.4511   1.4601   1.4943   1.5144   1.5360   1.5519   1.5638
     1.5907   1.6741   1.6958   1.7130   1.7685   1.7960   1.8861   1.9800

          k =-0.1234 0.1227-0.3692 (310247 PWs)   bands (ev):

   -17.9994 -17.9415 -17.8898 -17.8817 -17.8543 -17.8509 -17.8459 -17.7921
   -15.7796 -15.7211 -15.6859 -15.6835 -15.6583 -15.6289 -15.6117 -15.5332
   -14.3115 -14.2937 -14.2877 -14.2803 -14.2760 -14.2721 -14.2614 -14.2591
   -14.2587 -14.2554 -14.2534 -14.2526 -14.2435 -14.2434 -14.2418 -14.2411
   -14.2374 -14.2361 -14.2360 -14.2269 -14.2218 -14.2215 -14.2206 -14.2172
   -14.2161 -14.2155 -14.2129 -14.2103 -14.2091 -14.2046 -14.2032 -14.2007
   -14.1973 -14.1912 -14.1891 -14.1868 -14.1853 -14.1838 -14.1814 -14.1776
    -9.8091  -9.7703  -9.7355  -9.7044  -9.6877  -9.6556  -9.6287  -9.5869
    -9.5245  -9.4612  -9.4298  -9.3904  -9.3511  -9.3097  -9.2853  -9.2661
    -9.2206  -9.1785  -9.1621  -9.1104  -9.1001  -9.0643  -9.0492  -9.0344
    -9.0300  -9.0130  -9.0046  -8.9761  -8.9610  -8.9256  -8.8824  -8.8522
    -7.8574  -7.7415  -7.7062  -7.7012  -7.6867  -7.6731  -7.6506  -7.6165
    -7.1331  -7.1262  -7.0822  -7.0712  -7.0419  -7.0248  -7.0110  -6.9064
    -5.7647  -5.5993  -5.5352  -5.3997  -5.3728  -5.3537  -5.3453  -5.3193
    -5.3007  -5.2932  -5.2735  -5.2399  -5.1587  -5.0999  -4.8691  -4.7053
    -3.9438  -3.8670  -3.8482  -3.8338  -3.8184  -3.8147  -3.8086  -3.7511
    -3.3533  -3.3388  -3.2884  -3.2821  -3.2682  -3.2535  -3.2471  -3.1891
    -0.8388  -0.8071  -0.7404  -0.7265  -0.6795  -0.6292  -0.6036  -0.5697
    -0.4779  -0.4156  -0.3034  -0.2339  -0.1894  -0.1646  -0.1411  -0.1267
    -0.0909  -0.0570  -0.0325   0.0213   0.1223   0.2369   0.2833   0.3447
     0.4013   0.4307   0.4587   0.4891   0.5189   0.5491   0.5725   0.6127
     0.6509   0.6931   0.8477   0.8649   0.8927   0.9086   0.9269   0.9516
     0.9771   0.9936   1.0126   1.0290   1.0430   1.0610   1.0990   1.1109
     1.1473   1.1686   1.1811   1.2179   1.2285   1.2378   1.2568   1.2739
     1.2928   1.3035   1.3261   1.3433   1.3555   1.3758   1.3972   1.4159
     1.4318   1.4462   1.4614   1.5013   1.5067   1.5368   1.5520   1.5679
     1.6007   1.6833   1.6986   1.7187   1.7675   1.8030   1.8649   1.9667

          k = 0.1234-0.1227-0.3692 (310247 PWs)   bands (ev):

   -17.9994 -17.9415 -17.8898 -17.8817 -17.8543 -17.8509 -17.8459 -17.7921
   -15.7796 -15.7211 -15.6859 -15.6835 -15.6583 -15.6289 -15.6117 -15.5332
   -14.3115 -14.2937 -14.2877 -14.2803 -14.2760 -14.2721 -14.2614 -14.2591
   -14.2587 -14.2554 -14.2534 -14.2526 -14.2435 -14.2434 -14.2418 -14.2411
   -14.2374 -14.2361 -14.2360 -14.2269 -14.2218 -14.2215 -14.2206 -14.2172
   -14.2161 -14.2155 -14.2129 -14.2103 -14.2091 -14.2046 -14.2032 -14.2007
   -14.1973 -14.1912 -14.1891 -14.1868 -14.1853 -14.1838 -14.1814 -14.1776
    -9.8081  -9.7690  -9.7350  -9.7053  -9.6894  -9.6559  -9.6307  -9.5891
    -9.5264  -9.4547  -9.4224  -9.3953  -9.3552  -9.3046  -9.2825  -9.2608
    -9.2335  -9.1860  -9.1538  -9.1180  -9.0941  -9.0623  -9.0517  -9.0351
    -9.0265  -9.0140  -9.0001  -8.9766  -8.9645  -8.9256  -8.8826  -8.8518
    -7.8573  -7.7416  -7.7060  -7.7012  -7.6869  -7.6731  -7.6506  -7.6166
    -7.1331  -7.1263  -7.0822  -7.0711  -7.0419  -7.0248  -7.0110  -6.9064
    -5.7647  -5.6006  -5.5332  -5.3992  -5.3713  -5.3539  -5.3402  -5.3185
    -5.3045  -5.2968  -5.2736  -5.2447  -5.1556  -5.0990  -4.8696  -4.7048
    -3.9438  -3.8669  -3.8487  -3.8334  -3.8181  -3.8152  -3.8084  -3.7511
    -3.3535  -3.3388  -3.2884  -3.2823  -3.2688  -3.2531  -3.2468  -3.1890
    -0.8359  -0.8163  -0.7422  -0.7279  -0.6813  -0.6264  -0.6039  -0.5737
    -0.4601  -0.4168  -0.2925  -0.2331  -0.1885  -0.1634  -0.1441  -0.1312
    -0.0915  -0.0576  -0.0343   0.0272   0.1168   0.2220   0.2821   0.3532
     0.4062   0.4262   0.4618   0.4840   0.5221   0.5488   0.5707   0.6044
     0.6493   0.7011   0.8313   0.8745   0.8980   0.9077   0.9312   0.9510
     0.9691   0.9814   1.0208   1.0310   1.0456   1.0751   1.0989   1.1171
     1.1428   1.1599   1.1828   1.2141   1.2168   1.2399   1.2643   1.2725
     1.2885   1.3026   1.3337   1.3502   1.3578   1.3829   1.3970   1.4190
     1.4282   1.4481   1.4530   1.4995   1.5175   1.5327   1.5521   1.5633
     1.5950   1.6813   1.6973   1.7223   1.7643   1.8020   1.8694   1.9678

          k =-0.1234-0.3682 0.1231 (310227 PWs)   bands (ev):

   -17.9994 -17.9415 -17.8898 -17.8817 -17.8543 -17.8509 -17.8459 -17.7921
   -15.7796 -15.7211 -15.6860 -15.6835 -15.6582 -15.6289 -15.6117 -15.5332
   -14.3119 -14.2937 -14.2879 -14.2796 -14.2759 -14.2721 -14.2614 -14.2584
   -14.2569 -14.2554 -14.2544 -14.2532 -14.2435 -14.2434 -14.2418 -14.2411
   -14.2385 -14.2360 -14.2351 -14.2271 -14.2219 -14.2217 -14.2215 -14.2176
   -14.2161 -14.2147 -14.2129 -14.2102 -14.2088 -14.2046 -14.2032 -14.2007
   -14.1973 -14.1912 -14.1891 -14.1868 -14.1853 -14.1837 -14.1814 -14.1776
    -9.8285  -9.7775  -9.7319  -9.6975  -9.6674  -9.6414  -9.6313  -9.5801
    -9.5356  -9.4573  -9.4050  -9.3909  -9.3625  -9.3209  -9.2964  -9.2565
    -9.2376  -9.2118  -9.1498  -9.1356  -9.0908  -9.0593  -9.0539  -9.0369
    -9.0230  -8.9997  -8.9848  -8.9765  -8.9428  -8.9175  -8.8942  -8.8683
    -7.8557  -7.7433  -7.7063  -7.6971  -7.6877  -7.6713  -7.6520  -7.6173
    -7.1330  -7.1262  -7.0827  -7.0710  -7.0418  -7.0236  -7.0122  -6.9066
    -5.7566  -5.5461  -5.5286  -5.4017  -5.3760  -5.3661  -5.3444  -5.3281
    -5.3023  -5.2963  -5.2901  -5.2438  -5.1301  -5.1042  -4.9141  -4.7295
    -3.9417  -3.8707  -3.8549  -3.8293  -3.8185  -3.8105  -3.8076  -3.7516
    -3.3539  -3.3385  -3.2894  -3.2813  -3.2699  -3.2512  -3.2481  -3.1892
    -0.8949  -0.8557  -0.7677  -0.7104  -0.6671  -0.6455  -0.5586  -0.5185
    -0.3749  -0.3213  -0.2731  -0.2051  -0.1825  -0.1609  -0.1380  -0.1128
    -0.0924  -0.0864  -0.0330   0.0194   0.2174   0.2620   0.3121   0.3489
     0.3980   0.4537   0.4929   0.5069   0.5191   0.5547   0.5938   0.6272
     0.6602   0.7182   0.7482   0.7775   0.8017   0.8681   0.8896   0.9201
     0.9376   0.9731   1.0183   1.0465   1.0645   1.0745   1.0909   1.1150
     1.1338   1.1618   1.1774   1.2011   1.2168   1.2347   1.2550   1.2649
     1.2882   1.3071   1.3237   1.3446   1.3629   1.3883   1.4019   1.4325
     1.4478   1.4639   1.4743   1.4920   1.5015   1.5198   1.5515   1.5675
     1.5957   1.6251   1.6467   1.6762   1.7170   1.7368   1.8365   1.9198

          k =-0.1234 0.3682-0.1231 (310227 PWs)   bands (ev):

   -17.9994 -17.9415 -17.8898 -17.8817 -17.8543 -17.8509 -17.8459 -17.7921
   -15.7796 -15.7211 -15.6860 -15.6835 -15.6582 -15.6289 -15.6117 -15.5332
   -14.3119 -14.2937 -14.2879 -14.2796 -14.2759 -14.2721 -14.2614 -14.2584
   -14.2569 -14.2554 -14.2544 -14.2532 -14.2435 -14.2434 -14.2418 -14.2411
   -14.2385 -14.2360 -14.2351 -14.2271 -14.2219 -14.2217 -14.2215 -14.2176
   -14.2161 -14.2147 -14.2129 -14.2102 -14.2088 -14.2046 -14.2032 -14.2007
   -14.1973 -14.1912 -14.1891 -14.1868 -14.1853 -14.1837 -14.1814 -14.1776
    -9.8291  -9.7783  -9.7332  -9.6955  -9.6670  -9.6409  -9.6292  -9.5803
    -9.5340  -9.4565  -9.4087  -9.3923  -9.3640  -9.3228  -9.2898  -9.2675
    -9.2363  -9.2050  -9.1484  -9.1323  -9.0944  -9.0637  -9.0564  -9.0320
    -9.0137  -9.0015  -8.9936  -8.9760  -8.9374  -8.9194  -8.8948  -8.8687
    -7.8557  -7.7433  -7.7065  -7.6972  -7.6874  -7.6714  -7.6520  -7.6172
    -7.1329  -7.1261  -7.0827  -7.0710  -7.0418  -7.0236  -7.0121  -6.9066
    -5.7569  -5.5446  -5.5302  -5.4009  -5.3777  -5.3657  -5.3446  -5.3276
    -5.3030  -5.2963  -5.2879  -5.2443  -5.1289  -5.1054  -4.9137  -4.7303
    -3.9415  -3.8711  -3.8550  -3.8294  -3.8180  -3.8111  -3.8071  -3.7516
    -3.3538  -3.3385  -3.2894  -3.2812  -3.2694  -3.2517  -3.2481  -3.1892
    -0.8794  -0.8628  -0.7659  -0.7047  -0.6651  -0.6512  -0.5621  -0.5230
    -0.3744  -0.3284  -0.2802  -0.2102  -0.1869  -0.1635  -0.1450  -0.1208
    -0.0896  -0.0779  -0.0366   0.0216   0.2232   0.2789   0.3145   0.3558
     0.4129   0.4578   0.4879   0.4970   0.5241   0.5573   0.5771   0.6406
     0.6591   0.7187   0.7458   0.7755   0.8179   0.8495   0.9090   0.9219
     0.9456   0.9629   1.0122   1.0228   1.0607   1.0745   1.0913   1.1131
     1.1414   1.1598   1.1765   1.2079   1.2237   1.2278   1.2505   1.2657
     1.2897   1.3059   1.3342   1.3512   1.3602   1.3868   1.4136   1.4299
     1.4427   1.4453   1.4771   1.4939   1.5124   1.5200   1.5463   1.5757
     1.5892   1.6152   1.6559   1.6754   1.7166   1.7306   1.8471   1.9030

          k = 0.1234-0.3682-0.1231 (310227 PWs)   bands (ev):

   -17.9994 -17.9415 -17.8898 -17.8817 -17.8543 -17.8509 -17.8459 -17.7921
   -15.7796 -15.7211 -15.6860 -15.6835 -15.6582 -15.6289 -15.6117 -15.5332
   -14.3119 -14.2937 -14.2879 -14.2796 -14.2759 -14.2721 -14.2614 -14.2584
   -14.2569 -14.2554 -14.2544 -14.2532 -14.2435 -14.2434 -14.2418 -14.2411
   -14.2385 -14.2360 -14.2351 -14.2271 -14.2219 -14.2217 -14.2215 -14.2176
   -14.2161 -14.2147 -14.2129 -14.2102 -14.2088 -14.2046 -14.2032 -14.2007
   -14.1973 -14.1912 -14.1891 -14.1868 -14.1853 -14.1837 -14.1814 -14.1776
    -9.8287  -9.7769  -9.7323  -9.6971  -9.6674  -9.6416  -9.6308  -9.5823
    -9.5350  -9.4545  -9.4029  -9.3935  -9.3658  -9.3220  -9.2857  -9.2597
    -9.2417  -9.2127  -9.1522  -9.1353  -9.0904  -9.0641  -9.0528  -9.0309
    -9.0166  -9.0030  -8.9907  -8.9760  -8.9371  -8.9200  -8.8952  -8.8683
    -7.8556  -7.7434  -7.7064  -7.6970  -7.6876  -7.6715  -7.6519  -7.6173
    -7.1329  -7.1262  -7.0827  -7.0710  -7.0418  -7.0236  -7.0121  -6.9066
    -5.7571  -5.5511  -5.5230  -5.4016  -5.3757  -5.3645  -5.3385  -5.3278
    -5.3051  -5.2969  -5.2917  -5.2503  -5.1253  -5.1054  -4.9143  -4.7297
    -3.9415  -3.8711  -3.8552  -3.8292  -3.8182  -3.8105  -3.8075  -3.7516
    -3.3539  -3.3385  -3.2894  -3.2814  -3.2700  -3.2514  -3.2478  -3.1891
    -0.8963  -0.8499  -0.7681  -0.7087  -0.6626  -0.6473  -0.5587  -0.5172
    -0.3731  -0.3266  -0.2791  -0.2082  -0.1890  -0.1728  -0.1444  -0.1249
    -0.0878  -0.0775  -0.0310   0.0217   0.2245   0.2779   0.3134   0.3482
     0.4101   0.4705   0.4812   0.4957   0.5323   0.5543   0.5811   0.6359
     0.6717   0.7051   0.7373   0.7815   0.8183   0.8458   0.8994   0.9155
     0.9467   0.9616   1.0157   1.0389   1.0591   1.0799   1.0979   1.1248
     1.1310   1.1515   1.1836   1.1915   1.2160   1.2354   1.2420   1.2781
     1.2889   1.3134   1.3230   1.3488   1.3615   1.3869   1.4118   1.4309
     1.4467   1.4597   1.4735   1.4924   1.5054   1.5271   1.5475   1.5651
     1.5930   1.6215   1.6493   1.6774   1.7147   1.7309   1.8466   1.9064

          k =-0.1234-0.3682 0.3692 (310266 PWs)   bands (ev):

   -17.9994 -17.9415 -17.8898 -17.8817 -17.8543 -17.8509 -17.8459 -17.7921
   -15.7796 -15.7211 -15.6859 -15.6835 -15.6583 -15.6289 -15.6117 -15.5332
   -14.3114 -14.2935 -14.2877 -14.2802 -14.2757 -14.2721 -14.2614 -14.2585
   -14.2570 -14.2554 -14.2543 -14.2532 -14.2435 -14.2434 -14.2418 -14.2411
   -14.2378 -14.2363 -14.2360 -14.2271 -14.2217 -14.2215 -14.2208 -14.2175
   -14.2161 -14.2156 -14.2129 -14.2103 -14.2091 -14.2046 -14.2032 -14.2007
   -14.1973 -14.1912 -14.1891 -14.1868 -14.1853 -14.1838 -14.1814 -14.1776
    -9.8085  -9.7673  -9.7324  -9.7056  -9.6882  -9.6545  -9.6323  -9.5850
    -9.5304  -9.4493  -9.4167  -9.3852  -9.3735  -9.3251  -9.2954  -9.2614
    -9.2301  -9.1938  -9.1493  -9.1250  -9.1061  -9.0581  -9.0425  -9.0225
    -9.0144  -9.0104  -8.9821  -8.9751  -8.9492  -8.9224  -8.8961  -8.8747
    -7.8556  -7.7428  -7.7036  -7.6991  -7.6893  -7.6714  -7.6522  -7.6173
    -7.1329  -7.1262  -7.0821  -7.0712  -7.0421  -7.0236  -7.0123  -6.9065
    -5.6540  -5.5447  -5.4796  -5.4353  -5.3984  -5.3718  -5.3521  -5.3196
    -5.3023  -5.2962  -5.2603  -5.2340  -5.2021  -5.0404  -5.0078  -4.8519
    -3.9414  -3.8692  -3.8511  -3.8310  -3.8204  -3.8126  -3.8073  -3.7514
    -3.3539  -3.3383  -3.2880  -3.2826  -3.2688  -3.2520  -3.2487  -3.1894
    -0.8454  -0.7654  -0.6404  -0.6041  -0.4901  -0.4390  -0.3586  -0.3278
    -0.3080  -0.2773  -0.2526  -0.2213  -0.1810  -0.1429  -0.1282  -0.1103
    -0.0891  -0.0657  -0.0289   0.0267   0.1029   0.1897   0.2329   0.2471
     0.2940   0.3422   0.3647   0.3988   0.4273   0.4860   0.5648   0.5868
     0.6233   0.6724   0.7186   0.7408   0.7746   0.8188   0.8473   0.8628
     0.8803   0.9079   0.9423   0.9738   1.0035   1.0308   1.0764   1.1033
     1.1409   1.1639   1.1769   1.1932   1.2132   1.2425   1.2710   1.3046
     1.3168   1.3364   1.3495   1.3668   1.3747   1.3937   1.4109   1.4266
     1.4422   1.4548   1.4669   1.4889   1.5107   1.5132   1.5198   1.5487
     1.5729   1.5873   1.6266   1.6583   1.6808   1.7156   1.7270   1.8151

          k =-0.1234 0.3682-0.3692 (310266 PWs)   bands (ev):

   -17.9994 -17.9415 -17.8898 -17.8817 -17.8543 -17.8509 -17.8459 -17.7921
   -15.7796 -15.7211 -15.6859 -15.6835 -15.6583 -15.6289 -15.6117 -15.5332
   -14.3114 -14.2935 -14.2877 -14.2802 -14.2757 -14.2721 -14.2614 -14.2585
   -14.2570 -14.2554 -14.2543 -14.2532 -14.2435 -14.2434 -14.2418 -14.2411
   -14.2378 -14.2363 -14.2360 -14.2271 -14.2217 -14.2215 -14.2208 -14.2175
   -14.2161 -14.2156 -14.2129 -14.2103 -14.2091 -14.2046 -14.2032 -14.2007
   -14.1973 -14.1912 -14.1891 -14.1868 -14.1853 -14.1838 -14.1814 -14.1776
    -9.8090  -9.7687  -9.7339  -9.7040  -9.6865  -9.6544  -9.6297  -9.5866
    -9.5274  -9.4487  -9.4222  -9.3824  -9.3722  -9.3282  -9.3002  -9.2626
    -9.2328  -9.1862  -9.1443  -9.1216  -9.1102  -9.0661  -9.0399  -9.0209
    -9.0166  -9.0046  -8.9852  -8.9764  -8.9457  -8.9239  -8.8963  -8.8751
    -7.8557  -7.7428  -7.7039  -7.6992  -7.6889  -7.6716  -7.6522  -7.6172
    -7.1329  -7.1261  -7.0821  -7.0712  -7.0421  -7.0237  -7.0121  -6.9065
    -5.6543  -5.5448  -5.4810  -5.4352  -5.3965  -5.3710  -5.3523  -5.3221
    -5.3000  -5.2965  -5.2629  -5.2303  -5.2027  -5.0400  -5.0083  -4.8527
    -3.9411  -3.8696  -3.8509  -3.8313  -3.8201  -3.8131  -3.8068  -3.7514
    -3.3538  -3.3383  -3.2880  -3.2825  -3.2682  -3.2527  -3.2487  -3.1894
    -0.8403  -0.7583  -0.6356  -0.5948  -0.5027  -0.4452  -0.3600  -0.3391
    -0.3163  -0.2856  -0.2489  -0.2280  -0.1861  -0.1429  -0.1316  -0.1185
    -0.0858  -0.0477  -0.0369   0.0194   0.1069   0.2027   0.2416   0.2592
     0.3137   0.3477   0.3714   0.3858   0.4174   0.4804   0.5516   0.5905
     0.6413   0.6695   0.7157   0.7544   0.7750   0.8129   0.8433   0.8699
     0.8768   0.9089   0.9454   0.9712   1.0079   1.0262   1.0642   1.0938
     1.1360   1.1589   1.1785   1.2156   1.2229   1.2480   1.2600   1.2974
     1.3131   1.3354   1.3546   1.3602   1.3704   1.3992   1.4103   1.4218
     1.4439   1.4563   1.4760   1.4822   1.5062   1.5198   1.5262   1.5539
     1.5654   1.5874   1.6168   1.6624   1.6896   1.7105   1.7313   1.7997

          k = 0.1234-0.3682-0.3692 (310266 PWs)   bands (ev):

   -17.9994 -17.9415 -17.8898 -17.8817 -17.8543 -17.8509 -17.8459 -17.7921
   -15.7796 -15.7211 -15.6859 -15.6835 -15.6583 -15.6289 -15.6117 -15.5332
   -14.3114 -14.2935 -14.2877 -14.2802 -14.2757 -14.2721 -14.2614 -14.2585
   -14.2570 -14.2554 -14.2543 -14.2532 -14.2435 -14.2434 -14.2418 -14.2411
   -14.2378 -14.2363 -14.2360 -14.2271 -14.2217 -14.2215 -14.2208 -14.2175
   -14.2161 -14.2156 -14.2129 -14.2103 -14.2091 -14.2046 -14.2032 -14.2007
   -14.1973 -14.1912 -14.1891 -14.1868 -14.1853 -14.1838 -14.1814 -14.1776
    -9.8084  -9.7671  -9.7328  -9.7054  -9.6882  -9.6547  -9.6314  -9.5881
    -9.5290  -9.4451  -9.4136  -9.3924  -9.3745  -9.3203  -9.2900  -9.2651
    -9.2408  -9.1918  -9.1433  -9.1248  -9.1088  -9.0621  -9.0393  -9.0261
    -9.0096  -9.0060  -8.9877  -8.9745  -8.9452  -8.9249  -8.8969  -8.8744
    -7.8556  -7.7429  -7.7039  -7.6989  -7.6891  -7.6717  -7.6522  -7.6174
    -7.1329  -7.1262  -7.0821  -7.0712  -7.0421  -7.0237  -7.0121  -6.9065
    -5.6539  -5.5518  -5.4772  -5.4194  -5.3986  -5.3719  -5.3482  -5.3285
    -5.3118  -5.2965  -5.2699  -5.2252  -5.1961  -5.0383  -5.0116  -4.8514
    -3.9411  -3.8696  -3.8512  -3.8309  -3.8202  -3.8128  -3.8070  -3.7515
    -3.3539  -3.3383  -3.2880  -3.2827  -3.2689  -3.2522  -3.2484  -3.1893
    -0.8385  -0.7692  -0.6324  -0.6068  -0.4966  -0.4380  -0.3548  -0.3278
    -0.2944  -0.2757  -0.2515  -0.2463  -0.1852  -0.1623  -0.1349  -0.1149
    -0.0918  -0.0506  -0.0350   0.0298   0.1062   0.1988   0.2421   0.2631
     0.3107   0.3371   0.3639   0.3824   0.4341   0.4819   0.5671   0.5778
     0.6325   0.6845   0.6996   0.7418   0.7752   0.8253   0.8486   0.8534
     0.8785   0.9145   0.9438   0.9779   1.0119   1.0218   1.0774   1.0996
     1.1408   1.1499   1.1581   1.1998   1.2169   1.2506   1.2812   1.3049
     1.3159   1.3248   1.3588   1.3652   1.3822   1.4037   1.4106   1.4198
     1.4356   1.4576   1.4663   1.4924   1.5022   1.5191   1.5300   1.5492
     1.5697   1.5849   1.6195   1.6513   1.6886   1.7118   1.7314   1.8036

          k =-0.3703-0.1227 0.1231 (310239 PWs)   bands (ev):

   -17.9993 -17.9415 -17.8898 -17.8817 -17.8543 -17.8511 -17.8459 -17.7921
   -15.7782 -15.7211 -15.6860 -15.6850 -15.6582 -15.6288 -15.6117 -15.5333
   -14.3114 -14.2926 -14.2895 -14.2796 -14.2764 -14.2721 -14.2614 -14.2589
   -14.2577 -14.2554 -14.2535 -14.2528 -14.2443 -14.2435 -14.2418 -14.2412
   -14.2377 -14.2361 -14.2347 -14.2259 -14.2218 -14.2217 -14.2214 -14.2182
   -14.2161 -14.2149 -14.2129 -14.2101 -14.2093 -14.2046 -14.2032 -14.2007
   -14.1973 -14.1912 -14.1891 -14.1868 -14.1853 -14.1837 -14.1814 -14.1776
    -9.8050  -9.7527  -9.7502  -9.6963  -9.6746  -9.6660  -9.6474  -9.5848
    -9.5394  -9.4736  -9.3982  -9.3748  -9.3535  -9.3239  -9.2915  -9.2459
    -9.2139  -9.1967  -9.1653  -9.1467  -9.1050  -9.0702  -9.0503  -9.0298
    -9.0219  -9.0120  -8.9839  -8.9582  -8.9401  -8.9157  -8.8979  -8.8752
    -7.8553  -7.7415  -7.7107  -7.7019  -7.6879  -7.6737  -7.6510  -7.6170
    -7.1329  -7.1253  -7.0825  -7.0694  -7.0415  -7.0245  -7.0109  -6.9065
    -5.7520  -5.5686  -5.5029  -5.4015  -5.3728  -5.3565  -5.3508  -5.3301
    -5.3234  -5.3017  -5.2745  -5.2415  -5.1674  -5.0974  -4.8836  -4.7172
    -3.9432  -3.8680  -3.8535  -3.8295  -3.8187  -3.8118  -3.8095  -3.7514
    -3.3536  -3.3377  -3.2882  -3.2825  -3.2686  -3.2532  -3.2468  -3.1914
    -0.8752  -0.7990  -0.7746  -0.7364  -0.6846  -0.6538  -0.6227  -0.5485
    -0.4306  -0.3235  -0.2861  -0.2342  -0.1864  -0.1713  -0.1292  -0.1032
    -0.0876  -0.0382  -0.0249   0.0168   0.1388   0.2478   0.3308   0.3584
     0.4191   0.4524   0.4666   0.5072   0.5376   0.5463   0.5746   0.6459
     0.6554   0.7424   0.7728   0.8024   0.8371   0.8602   0.9077   0.9316
     0.9585   0.9774   1.0089   1.0440   1.0612   1.0874   1.1011   1.1323
     1.1360   1.1553   1.1693   1.1791   1.2105   1.2296   1.2390   1.2726
     1.2959   1.3150   1.3334   1.3563   1.3706   1.3885   1.4114   1.4338
     1.4465   1.4552   1.4765   1.5017   1.5126   1.5373   1.5810   1.5881
     1.6093   1.6134   1.6358   1.6883   1.7184   1.7587   1.8430   1.9228

          k =-0.3703 0.1227-0.1231 (310239 PWs)   bands (ev):

   -17.9993 -17.9415 -17.8898 -17.8817 -17.8543 -17.8511 -17.8459 -17.7921
   -15.7782 -15.7211 -15.6860 -15.6850 -15.6582 -15.6288 -15.6117 -15.5333
   -14.3114 -14.2926 -14.2895 -14.2796 -14.2764 -14.2721 -14.2614 -14.2589
   -14.2577 -14.2554 -14.2535 -14.2528 -14.2443 -14.2435 -14.2418 -14.2412
   -14.2377 -14.2361 -14.2347 -14.2259 -14.2218 -14.2217 -14.2214 -14.2182
   -14.2161 -14.2149 -14.2129 -14.2101 -14.2093 -14.2046 -14.2032 -14.2007
   -14.1973 -14.1912 -14.1891 -14.1868 -14.1853 -14.1837 -14.1814 -14.1776
    -9.8058  -9.7577  -9.7484  -9.6941  -9.6732  -9.6621  -9.6478  -9.5851
    -9.5387  -9.4737  -9.4075  -9.3705  -9.3609  -9.3182  -9.2885  -9.2467
    -9.2145  -9.1890  -9.1698  -9.1485  -9.1061  -9.0726  -9.0411  -9.0337
    -9.0237  -9.0132  -8.9840  -8.9608  -8.9351  -8.9150  -8.8975  -8.8776
    -7.8554  -7.7415  -7.7111  -7.7016  -7.6878  -7.6739  -7.6509  -7.6169
    -7.1329  -7.1252  -7.0826  -7.0694  -7.0415  -7.0245  -7.0108  -6.9065
    -5.7523  -5.5696  -5.5019  -5.4020  -5.3762  -5.3568  -5.3515  -5.3285
    -5.3195  -5.3002  -5.2679  -5.2484  -5.1695  -5.0970  -4.8829  -4.7180
    -3.9430  -3.8684  -3.8536  -3.8294  -3.8187  -3.8118  -3.8093  -3.7514
    -3.3534  -3.3377  -3.2882  -3.2825  -3.2681  -3.2536  -3.2470  -3.1914
    -0.8692  -0.8016  -0.7691  -0.7367  -0.6699  -0.6486  -0.6257  -0.5539
    -0.4558  -0.3328  -0.2860  -0.2394  -0.1926  -0.1761  -0.1430  -0.0867
    -0.0797  -0.0443  -0.0276   0.0147   0.1575   0.2698   0.3125   0.3686
     0.4218   0.4480   0.4743   0.5001   0.5285   0.5637   0.5814   0.6470
     0.6662   0.7370   0.7727   0.7970   0.8389   0.8785   0.9031   0.9062
     0.9640   0.9850   1.0079   1.0383   1.0516   1.0735   1.0990   1.1264
     1.1406   1.1571   1.1816   1.1903   1.1990   1.2230   1.2469   1.2758
     1.2900   1.3178   1.3340   1.3601   1.3758   1.3861   1.4135   1.4290
     1.4448   1.4516   1.4765   1.4900   1.5100   1.5427   1.5794   1.5993
     1.6133   1.6272   1.6380   1.6859   1.7113   1.7477   1.8547   1.9045

          k = 0.3703-0.1227-0.1231 (310239 PWs)   bands (ev):

   -17.9993 -17.9415 -17.8898 -17.8817 -17.8543 -17.8511 -17.8459 -17.7921
   -15.7782 -15.7211 -15.6860 -15.6850 -15.6582 -15.6288 -15.6117 -15.5333
   -14.3114 -14.2926 -14.2895 -14.2796 -14.2764 -14.2721 -14.2614 -14.2589
   -14.2577 -14.2554 -14.2535 -14.2528 -14.2443 -14.2435 -14.2418 -14.2412
   -14.2377 -14.2361 -14.2347 -14.2259 -14.2218 -14.2217 -14.2214 -14.2182
   -14.2161 -14.2149 -14.2129 -14.2101 -14.2093 -14.2046 -14.2032 -14.2007
   -14.1973 -14.1912 -14.1891 -14.1868 -14.1853 -14.1837 -14.1814 -14.1776
    -9.8050  -9.7547  -9.7483  -9.6962  -9.6740  -9.6665  -9.6470  -9.5862
    -9.5390  -9.4724  -9.3975  -9.3748  -9.3575  -9.3242  -9.2824  -9.2470
    -9.2237  -9.1881  -9.1686  -9.1518  -9.1001  -9.0751  -9.0417  -9.0392
    -9.0183  -9.0094  -8.9830  -8.9616  -8.9379  -8.9137  -8.9003  -8.8753
    -7.8553  -7.7415  -7.7109  -7.7017  -7.6878  -7.6741  -7.6509  -7.6170
    -7.1329  -7.1253  -7.0826  -7.0694  -7.0415  -7.0246  -7.0108  -6.9065
    -5.7523  -5.5688  -5.5034  -5.4015  -5.3753  -5.3588  -5.3470  -5.3276
    -5.3221  -5.3004  -5.2684  -5.2494  -5.1687  -5.0983  -4.8823  -4.7178
    -3.9430  -3.8684  -3.8536  -3.8294  -3.8190  -3.8106  -3.8101  -3.7515
    -3.3536  -3.3377  -3.2883  -3.2826  -3.2686  -3.2533  -3.2466  -3.1913
    -0.8808  -0.7966  -0.7681  -0.7325  -0.6726  -0.6489  -0.6270  -0.5483
    -0.4549  -0.3274  -0.2925  -0.2314  -0.1920  -0.1756  -0.1366  -0.0901
    -0.0836  -0.0414  -0.0284   0.0142   0.1491   0.2637   0.3313   0.3560
     0.4152   0.4591   0.4742   0.5003   0.5282   0.5518   0.5840   0.6434
     0.6522   0.7387   0.7816   0.8103   0.8436   0.8706   0.8864   0.9395
     0.9543   0.9862   1.0078   1.0296   1.0492   1.0786   1.0944   1.1229
     1.1482   1.1567   1.1756   1.1770   1.2133   1.2391   1.2463   1.2678
     1.2990   1.3065   1.3366   1.3526   1.3674   1.3968   1.4067   1.4269
     1.4515   1.4557   1.4743   1.4896   1.5205   1.5388   1.5792   1.5865
     1.6133   1.6280   1.6403   1.6837   1.7182   1.7489   1.8521   1.9081

          k =-0.3703-0.1227 0.3692 (310236 PWs)   bands (ev):

   -17.9993 -17.9415 -17.8898 -17.8817 -17.8543 -17.8511 -17.8459 -17.7921
   -15.7782 -15.7211 -15.6859 -15.6850 -15.6583 -15.6288 -15.6117 -15.5333
   -14.3110 -14.2924 -14.2893 -14.2802 -14.2761 -14.2721 -14.2614 -14.2590
   -14.2577 -14.2554 -14.2534 -14.2527 -14.2443 -14.2435 -14.2418 -14.2412
   -14.2371 -14.2361 -14.2358 -14.2259 -14.2218 -14.2215 -14.2206 -14.2177
   -14.2162 -14.2159 -14.2129 -14.2103 -14.2097 -14.2046 -14.2032 -14.2007
   -14.1973 -14.1912 -14.1891 -14.1868 -14.1853 -14.1838 -14.1814 -14.1776
    -9.7876  -9.7485  -9.7344  -9.7030  -9.6936  -9.6710  -9.6618  -9.5912
    -9.5270  -9.4558  -9.4290  -9.4033  -9.3439  -9.3114  -9.2980  -9.2642
    -9.2072  -9.1871  -9.1573  -9.1189  -9.0990  -9.0597  -9.0479  -9.0391
    -9.0228  -9.0009  -8.9840  -8.9626  -8.9411  -8.9225  -8.9085  -8.8773
    -7.8555  -7.7410  -7.7101  -7.7014  -7.6899  -7.6738  -7.6515  -7.6168
    -7.1329  -7.1253  -7.0820  -7.0695  -7.0418  -7.0245  -7.0109  -6.9064
    -5.6467  -5.5067  -5.4809  -5.4597  -5.3984  -5.3716  -5.3515  -5.3360
    -5.3274  -5.3087  -5.2850  -5.2523  -5.1596  -5.0141  -4.9947  -4.8416
    -3.9428  -3.8660  -3.8488  -3.8323  -3.8184  -3.8159  -3.8101  -3.7512
    -3.3535  -3.3375  -3.2865  -3.2834  -3.2688  -3.2532  -3.2467  -3.1914
    -0.7776  -0.7311  -0.6982  -0.6583  -0.5525  -0.4558  -0.4245  -0.3613
    -0.3323  -0.2767  -0.2313  -0.1874  -0.1692  -0.1560  -0.1284  -0.1041
    -0.0877  -0.0543  -0.0289   0.0280   0.0899   0.1723   0.2076   0.2569
     0.2878   0.3356   0.3778   0.4227   0.4622   0.4785   0.5270   0.5429
     0.6652   0.6934   0.7410   0.7596   0.7845   0.8266   0.8408   0.8666
     0.9164   0.9329   0.9475   0.9807   1.0068   1.0402   1.0576   1.1030
     1.1285   1.1753   1.1958   1.2184   1.2251   1.2370   1.2588   1.2983
     1.3068   1.3252   1.3661   1.3691   1.3739   1.3896   1.4135   1.4210
     1.4429   1.4550   1.4674   1.4877   1.5134   1.5193   1.5251   1.5589
     1.5707   1.5812   1.6263   1.6787   1.6990   1.7480   1.7749   1.8072

          k =-0.3703 0.1227-0.3692 (310236 PWs)   bands (ev):

   -17.9993 -17.9415 -17.8898 -17.8817 -17.8543 -17.8511 -17.8459 -17.7921
   -15.7782 -15.7211 -15.6859 -15.6850 -15.6583 -15.6288 -15.6117 -15.5333
   -14.3110 -14.2924 -14.2893 -14.2802 -14.2761 -14.2721 -14.2614 -14.2590
   -14.2577 -14.2554 -14.2534 -14.2527 -14.2443 -14.2435 -14.2418 -14.2412
   -14.2371 -14.2361 -14.2358 -14.2259 -14.2218 -14.2215 -14.2206 -14.2177
   -14.2162 -14.2159 -14.2129 -14.2103 -14.2097 -14.2046 -14.2032 -14.2007
   -14.1973 -14.1912 -14.1891 -14.1868 -14.1853 -14.1838 -14.1814 -14.1776
    -9.7876  -9.7541  -9.7346  -9.7013  -9.6910  -9.6672  -9.6606  -9.5927
    -9.5239  -9.4563  -9.4407  -9.3978  -9.3428  -9.3090  -9.3019  -9.2661
    -9.2073  -9.1810  -9.1590  -9.1118  -9.1053  -9.0627  -9.0471  -9.0378
    -9.0272  -8.9955  -8.9887  -8.9585  -8.9413  -8.9249  -8.9039  -8.8803
    -7.8556  -7.7410  -7.7104  -7.7011  -7.6898  -7.6740  -7.6515  -7.6167
    -7.1328  -7.1252  -7.0820  -7.0695  -7.0418  -7.0246  -7.0108  -6.9065
    -5.6468  -5.5095  -5.4789  -5.4618  -5.3996  -5.3699  -5.3533  -5.3340
    -5.3188  -5.3062  -5.2899  -5.2543  -5.1622  -5.0100  -4.9976  -4.8423
    -3.9425  -3.8666  -3.8485  -3.8325  -3.8184  -3.8161  -3.8097  -3.7513
    -3.3533  -3.3375  -3.2865  -3.2834  -3.2683  -3.2536  -3.2468  -3.1913
    -0.7740  -0.7200  -0.6923  -0.6630  -0.5284  -0.4861  -0.4136  -0.3780
    -0.3261  -0.2823  -0.2559  -0.1992  -0.1876  -0.1539  -0.1378  -0.0973
    -0.0791  -0.0572  -0.0316   0.0090   0.1198   0.1957   0.2316   0.2763
     0.3029   0.3235   0.3786   0.4051   0.4506   0.4791   0.5191   0.5578
     0.6691   0.7019   0.7340   0.7626   0.7907   0.8236   0.8368   0.8497
     0.9187   0.9371   0.9555   0.9815   1.0034   1.0322   1.0545   1.1058
     1.1240   1.1710   1.1806   1.2159   1.2348   1.2533   1.2720   1.2992
[...]
     1.0511   1.0706   1.0859   1.0975   1.1234   1.1506   1.1641   1.1882
     1.2724   1.2965   1.3062   1.3307   1.3456   1.3707   1.3823   1.3975
     1.4101   1.4381   1.4533   1.4640   1.4782   1.4994   1.5125   1.5161
     1.5309   1.5531   1.5612   1.5716   1.6119   1.6283   1.6512   1.6690

          k =-0.3701 0.3673-0.3695 (310323 PWs)   bands (ev):

   -18.0056 -17.9371 -17.9009 -17.9002 -17.8629 -17.8562 -17.8381 -17.8097
   -15.7895 -15.7177 -15.7067 -15.6960 -15.6787 -15.6305 -15.6112 -15.5651
   -14.3449 -14.3288 -14.3160 -14.3076 -14.3037 -14.2998 -14.2979 -14.2919
   -14.2906 -14.2850 -14.2803 -14.2779 -14.2722 -14.2717 -14.2710 -14.2692
   -14.2673 -14.2610 -14.2568 -14.2564 -14.2553 -14.2545 -14.2508 -14.2488
   -14.2465 -14.2452 -14.2413 -14.2384 -14.2378 -14.2369 -14.2343 -14.2332
   -14.2298 -14.2226 -14.2212 -14.2201 -14.2171 -14.2137 -14.2100 -14.2068
    -9.8193  -9.7763  -9.7636  -9.7159  -9.7090  -9.6902  -9.6767  -9.6245
    -9.5398  -9.4587  -9.4481  -9.4072  -9.3911  -9.3508  -9.3286  -9.2798
    -9.2513  -9.1891  -9.1699  -9.1506  -9.1317  -9.0806  -9.0577  -9.0499
    -9.0342  -9.0118  -8.9922  -8.9836  -8.9652  -8.9564  -8.9348  -8.9215
    -7.8558  -7.7205  -7.7110  -7.7032  -7.6958  -7.6634  -7.6483  -7.6343
    -7.1484  -7.1334  -7.0973  -7.0956  -7.0790  -7.0259  -7.0115  -6.9444
    -5.5701  -5.5359  -5.4165  -5.4048  -5.3866  -5.3721  -5.3639  -5.3534
    -5.3367  -5.3214  -5.2941  -5.2746  -5.2131  -5.1634  -5.1597  -5.0126
    -3.9472  -3.8621  -3.8506  -3.8215  -3.8177  -3.8121  -3.7998  -3.7763
    -3.3486  -3.3386  -3.3082  -3.3013  -3.2871  -3.2629  -3.2448  -3.2133
    -0.5580  -0.5197  -0.4693  -0.4295  -0.3901  -0.3640  -0.3530  -0.3333
    -0.3160  -0.2864  -0.2790  -0.2100  -0.1849  -0.1662  -0.1284  -0.1202
    -0.0808  -0.0663  -0.0473  -0.0007   0.1027   0.1470   0.1700   0.2286
     0.2560   0.2750   0.2841   0.2946   0.3494   0.3724   0.3945   0.4407
     0.6424   0.6634   0.6914   0.7314   0.7492   0.7819   0.8109   0.8220
     0.8703   0.8787   0.9021   0.9264   0.9431   0.9561   0.9827   1.0082
     1.0530   1.0799   1.0851   1.0995   1.1224   1.1464   1.1627   1.1838
     1.2712   1.2921   1.3151   1.3301   1.3504   1.3648   1.3886   1.3982
     1.4122   1.4347   1.4504   1.4698   1.4783   1.4853   1.5015   1.5298
     1.5425   1.5569   1.5691   1.5868   1.6002   1.6217   1.6366   1.6658

          k = 0.3701-0.3673-0.3695 (310323 PWs)   bands (ev):

   -18.0056 -17.9371 -17.9009 -17.9002 -17.8629 -17.8562 -17.8381 -17.8097
   -15.7895 -15.7177 -15.7067 -15.6960 -15.6787 -15.6305 -15.6112 -15.5651
   -14.3449 -14.3288 -14.3160 -14.3076 -14.3037 -14.2998 -14.2979 -14.2919
   -14.2906 -14.2850 -14.2803 -14.2779 -14.2722 -14.2717 -14.2710 -14.2692
   -14.2673 -14.2610 -14.2568 -14.2564 -14.2553 -14.2545 -14.2508 -14.2488
   -14.2465 -14.2452 -14.2413 -14.2384 -14.2378 -14.2369 -14.2343 -14.2332
   -14.2298 -14.2226 -14.2212 -14.2201 -14.2171 -14.2137 -14.2100 -14.2068
    -9.8193  -9.7745  -9.7599  -9.7185  -9.7095  -9.6949  -9.6769  -9.6241
    -9.5425  -9.4589  -9.4371  -9.4118  -9.3977  -9.3339  -9.3275  -9.2900
    -9.2521  -9.1947  -9.1669  -9.1494  -9.1335  -9.0811  -9.0606  -9.0481
    -9.0310  -9.0033  -8.9990  -8.9849  -8.9636  -8.9603  -8.9344  -8.9199
    -7.8557  -7.7205  -7.7109  -7.7032  -7.6959  -7.6635  -7.6483  -7.6343
    -7.1484  -7.1334  -7.0974  -7.0955  -7.0790  -7.0259  -7.0115  -6.9444
    -5.5643  -5.5445  -5.4180  -5.4051  -5.3852  -5.3679  -5.3589  -5.3492
    -5.3354  -5.3161  -5.3028  -5.2856  -5.2095  -5.1728  -5.1525  -5.0107
    -3.9472  -3.8621  -3.8506  -3.8221  -3.8174  -3.8117  -3.7999  -3.7763
    -3.3486  -3.3387  -3.3082  -3.3012  -3.2876  -3.2628  -3.2445  -3.2132
    -0.5903  -0.5101  -0.4708  -0.4199  -0.3980  -0.3590  -0.3375  -0.3267
    -0.3183  -0.2796  -0.2400  -0.2043  -0.1942  -0.1703  -0.1411  -0.1223
    -0.1071  -0.0687  -0.0332   0.0137   0.0773   0.1375   0.1778   0.2105
     0.2520   0.2763   0.2906   0.3061   0.3554   0.3661   0.3899   0.4526
     0.6346   0.6572   0.6986   0.7358   0.7494   0.7796   0.8039   0.8383
     0.8553   0.8861   0.8990   0.9207   0.9411   0.9597   0.9949   1.0039
     1.0546   1.0670   1.0848   1.1065   1.1188   1.1387   1.1654   1.1985
     1.2679   1.2879   1.3175   1.3310   1.3442   1.3728   1.3852   1.4038
     1.4103   1.4424   1.4548   1.4613   1.4850   1.4896   1.5072   1.5182
     1.5389   1.5458   1.5675   1.5871   1.6030   1.6269   1.6403   1.6622

     highest occupied level (ev):     2.0850

!    total energy              =  -16707.45902862 Ry
     Harris-Foulkes estimate   =  -16707.45902862 Ry
     estimated scf accuracy    <          7.7E-10 Ry

     total all-electron energy =   -678114.518713 Ry

     The total energy is the sum of the following terms:

     one-electron contribution =    -953.04391488 Ry
     hartree contribution      =     675.73644214 Ry
     xc contribution           =    -795.79842968 Ry
     ewald contribution        =   -1215.72668668 Ry
     DFT-D3 Dispersion         =      -0.64415438 Ry
     one-center paw contrib.   =  -14417.98228513 Ry

     convergence has been achieved in   9 iterations

     Forces acting on atoms (cartesian axes, Ry/au):

     atom    1 type  1   force =     0.00040474   -0.00047543   -0.00010604
     atom    2 type  1   force =     0.00084622    0.00021612    0.00050118
     atom    3 type  1   force =     0.00000665   -0.00017012    0.00040135
     atom    4 type  1   force =     0.00000001   -0.00023893   -0.00069753
     atom    5 type  1   force =     0.00019669    0.00019974    0.00016436
     atom    6 type  1   force =     0.00012323   -0.00040657    0.00027377
     atom    7 type  1   force =    -0.00080362   -0.00032938    0.00045420
     atom    8 type  1   force =    -0.00051673    0.00007400   -0.00049841
     atom    9 type  2   force =    -0.00050355    0.00024445    0.00033106
     atom   10 type  2   force =     0.00022080    0.00045099    0.00029626
     atom   11 type  2   force =     0.00002971   -0.00009980    0.00008027
     atom   12 type  2   force =     0.00073936    0.00050232   -0.00034330
     atom   13 type  2   force =    -0.00028571    0.00026633   -0.00006465
     atom   14 type  2   force =     0.00045397    0.00019085    0.00040281
     atom   15 type  2   force =     0.00013905    0.00048209    0.00066514
     atom   16 type  2   force =    -0.00047877    0.00065689   -0.00057357
     atom   17 type  2   force =    -0.00092331   -0.00012344    0.00019372
     atom   18 type  2   force =    -0.00142702    0.00002650   -0.00002462
     atom   19 type  2   force =     0.00032516    0.00081854   -0.00051824
     atom   20 type  2   force =     0.00054516   -0.00011025    0.00015199
     atom   21 type  2   force =     0.00010575   -0.00023037    0.00003572
     atom   22 type  2   force =    -0.00040075   -0.00028141    0.00002362
     atom   23 type  2   force =     0.00164342    0.00042525   -0.00022478
     atom   24 type  2   force =     0.00012828   -0.00017964   -0.00014206
     atom   25 type  2   force =    -0.00008325   -0.00015389    0.00024655
     atom   26 type  2   force =    -0.00000083    0.00031239   -0.00020708
     atom   27 type  2   force =     0.00020500   -0.00000002   -0.00018334
     atom   28 type  2   force =    -0.00050462    0.00033462    0.00041983
     atom   29 type  2   force =    -0.00012183   -0.00044724    0.00035988
     atom   30 type  2   force =    -0.00014585   -0.00008417   -0.00055344
     atom   31 type  2   force =    -0.00009744    0.00018605   -0.00107889
     atom   32 type  2   force =     0.00025542   -0.00091147   -0.00036384
     atom   33 type  3   force =    -0.00068041   -0.00110911   -0.00056877
     atom   34 type  3   force =     0.00158370   -0.00105375    0.00047094
     atom   35 type  3   force =    -0.00161996   -0.00174690   -0.00006563
     atom   36 type  3   force =    -0.00079405    0.00185442    0.00098000
     atom   37 type  3   force =     0.00233835    0.00080422    0.00024033
     atom   38 type  3   force =    -0.00235110   -0.00004035   -0.00018113
     atom   39 type  3   force =    -0.00133623   -0.00052739   -0.00038839
     atom   40 type  3   force =     0.00111547   -0.00038171    0.00104619
     atom   41 type  4   force =     0.00080191   -0.00027220    0.00033562
     atom   42 type  4   force =     0.00038216   -0.00012572    0.00015051
     atom   43 type  4   force =     0.00316001    0.00018927   -0.00041019
     atom   44 type  4   force =    -0.00185214   -0.00078187    0.00108291
     atom   45 type  4   force =    -0.00018557    0.00075790   -0.00048480
     atom   46 type  4   force =     0.00127494   -0.00042572   -0.00033708
     atom   47 type  4   force =    -0.00002552   -0.00044575    0.00071220
     atom   48 type  4   force =     0.00111354   -0.00063188   -0.00089684
     atom   49 type  4   force =     0.00070713    0.00026204    0.00006062
     atom   50 type  4   force =     0.00180150   -0.00194092    0.00020108
     atom   51 type  4   force =    -0.00346661   -0.00379504   -0.00037993
     atom   52 type  4   force =     0.00223162    0.00017696   -0.00199261
     atom   53 type  4   force =    -0.00157594   -0.00051123    0.00049110
     atom   54 type  4   force =    -0.00082495   -0.00027725    0.00118416
     atom   55 type  4   force =     0.00041275    0.00065706   -0.00017108
     atom   56 type  4   force =    -0.00083932   -0.00024413    0.00023388
     atom   57 type  5   force =    -0.00025333    0.00042732    0.00054886
     atom   58 type  5   force =    -0.00109576    0.00129296    0.00102393
     atom   59 type  5   force =     0.00044105   -0.00031628    0.00062567
     atom   60 type  5   force =     0.00096102   -0.00059418   -0.00112578
     atom   61 type  5   force =    -0.00077118   -0.00134435   -0.00038751
     atom   62 type  5   force =     0.00095913   -0.00096840    0.00001109
     atom   63 type  5   force =    -0.00076118    0.00047547   -0.00003778
     atom   64 type  5   force =    -0.00033629    0.00004590   -0.00037108
     atom   65 type  5   force =     0.00086005   -0.00153080   -0.00006454
     atom   66 type  5   force =     0.00002400    0.00098332   -0.00012873
     atom   67 type  5   force =     0.00048532   -0.00122635   -0.00051150
     atom   68 type  5   force =    -0.00021287    0.00026117    0.00011149
     atom   69 type  5   force =     0.00016912    0.00066785   -0.00035503
     atom   70 type  5   force =     0.00085578   -0.00053217   -0.00015858
     atom   71 type  5   force =     0.00073057   -0.00060278    0.00037585
     atom   72 type  5   force =     0.00025084    0.00049780   -0.00007512
     atom   73 type  5   force =     0.00046214    0.00072027   -0.00023923
     atom   74 type  5   force =     0.00048263    0.00068562    0.00000495
     atom   75 type  5   force =     0.00003292    0.00106381    0.00040792
     atom   76 type  5   force =     0.00065535    0.00005834   -0.00021181
     atom   77 type  5   force =     0.00122475   -0.00053802   -0.00082495
     atom   78 type  5   force =     0.00027597    0.00082145    0.00040966
     atom   79 type  5   force =     0.00006016   -0.00030981    0.00095794
     atom   80 type  5   force =     0.00037528    0.00083606   -0.00040101
     atom   81 type  5   force =    -0.00028397   -0.00090178   -0.00176420
     atom   82 type  5   force =    -0.00076453   -0.00218013   -0.00239923
     atom   83 type  5   force =    -0.00046761    0.00289120    0.00034988
     atom   84 type  5   force =    -0.00028552    0.00018036   -0.00062516
     atom   85 type  5   force =    -0.00083438   -0.00042691    0.00024023
     atom   86 type  5   force =    -0.00009711    0.00124750   -0.00054130
     atom   87 type  5   force =     0.00094961    0.00006221    0.00066941
     atom   88 type  5   force =    -0.00061189   -0.00040636    0.00087018
     atom   89 type  5   force =    -0.00153871    0.00174478   -0.00002532
     atom   90 type  5   force =    -0.00121517    0.00252481    0.00117554
     atom   91 type  5   force =     0.00122142    0.00222111    0.00090615
     atom   92 type  5   force =    -0.00136420   -0.00072381    0.00172833
     atom   93 type  5   force =    -0.00052750    0.00154430    0.00042822
     atom   94 type  5   force =    -0.00089320   -0.00031809    0.00025440
     atom   95 type  5   force =    -0.00016655   -0.00084499   -0.00093261
     atom   96 type  5   force =    -0.00044278    0.00097560   -0.00065427

     Total force =     0.014815     Total SCF correction =     0.000063


     Computing stress (Cartesian axis) and pressure

          total   stress  (Ry/bohr**3)                   (kbar)     P=   -0.08
  -0.00000261  -0.00000035  -0.00000995         -0.38     -0.05     -1.46
  -0.00000035   0.00000368   0.00000096         -0.05      0.54      0.14
  -0.00000995   0.00000096  -0.00000260         -1.46      0.14     -0.38


     number of scf cycles    =  20
     number of bfgs steps    =  19

     enthalpy old            =  -16707.4588138971 Ry
     enthalpy new            =  -16707.4590286165 Ry

     CASE: enthalpy_new < enthalpy_old

     new trust radius        =       0.0212335759 bohr
     new conv_thr            =       0.0000000021 Ry

     new unit-cell volume =  14008.91042 a.u.^3 (  2075.90632 Ang^3 )
     density =      4.05541 g/cm^3

CELL_PARAMETERS (alat= 23.71984200)
   1.012869526   0.000000000   0.000000000
   0.000000000   1.020693713   0.000000000
   0.000000000   0.000000000   1.015359972

ATOMIC_POSITIONS (crystal)
Pb      -0.015586602  -0.020714054   0.003763572
Pb       0.483867168  -0.023131960   0.003249545
Pb      -0.011095566   0.483637020   0.008436239
Pb       0.023707193  -0.014985992   0.510344645
Pb       0.486175011   0.480100002  -0.001288569
Pb       0.023334613   0.483157444   0.505066396
Pb       0.525948419  -0.019050202   0.505195701
Pb       0.521776138   0.485253696   0.504517373
I        0.235824250  -0.008823866  -0.036292227
I        0.735393102  -0.010667636   0.038251835
I        0.237016894   0.487653806   0.063136187
I        0.270583433  -0.029999358   0.523263942
I        0.737136695   0.484698393  -0.047483806
I        0.273160648   0.480126460   0.457492584
I        0.770660184  -0.013339300   0.476163280
I        0.774304331   0.460497027   0.538827807
I       -0.027075864   0.232572821   0.004269298
I        0.474405345   0.230808265   0.010806473
I       -0.028310142   0.731471315   0.000029251
I        0.043060986   0.233557941   0.501709605
I        0.471814170   0.730981575  -0.000887018
I        0.019157664   0.733002118   0.510029457
I        0.526336835   0.230910497   0.505611795
I        0.544608989   0.731128598   0.513015571
I        0.032672271  -0.029453829   0.254137962
I        0.469969520  -0.032429043   0.256150022
I       -0.045891787   0.482754311   0.257590541
I       -0.036804125  -0.025013845   0.754364446
I        0.551155026   0.481958754   0.250283632
I        0.051860934   0.478802062   0.758382993
I        0.536331108  -0.025483100   0.757307991
I        0.454571377   0.472078822   0.751078672
C        0.241767495   0.254058794   0.256277916
C        0.758131863   0.255262488   0.271946733
C        0.248762506   0.743287680   0.280076008
C        0.259171704   0.249632937   0.736133646
C        0.753552910   0.792143993   0.254371232
C        0.254065842   0.777782611   0.745444509
C        0.745815426   0.257397980   0.754514485
C        0.755571212   0.747385287   0.738039968
N        0.196328368   0.204629356   0.178156827
N        0.685670912   0.221131421   0.206882640
N        0.161356780   0.689925548   0.268131570
N        0.189779976   0.232604816   0.810538695
N        0.662990418   0.743719069   0.244558111
N        0.171058673   0.738019580   0.792125186
N        0.703753561   0.208030503   0.834440436
N        0.685402941   0.732718875   0.812177174
N        0.313414475   0.213559612   0.318391464
N        0.845921876   0.205780814   0.293981967
N        0.341850670   0.710966896   0.249678583
N        0.341930371   0.190876487   0.718180898
N        0.846271947   0.747506338   0.260022943
N        0.333047613   0.723296190   0.707993545
N        0.807448217   0.214960089   0.683733303
N        0.836960495   0.686333423   0.721566464
H        0.218808565   0.334962555   0.270791892
H        0.744749056   0.330307496   0.310457501
H        0.243834994   0.819657909   0.318118594
H        0.247287783   0.317959623   0.686296129
H        0.751745379   0.877165370   0.258396021
H        0.256857634   0.862431818   0.736233531
H        0.728285330   0.340436471   0.745872130
H        0.746323082   0.815306703   0.687017623
H        0.213854829   0.129383746   0.158598492
H        0.694104332   0.153149386   0.164935286
H        0.159688440   0.618465059   0.232610588
H        0.195503674   0.170235973   0.860663448
H        0.653987146   0.664072811   0.242462832
H        0.157727727   0.659405426   0.798449631
H        0.715071911   0.130432344   0.848627105
H        0.689333647   0.670411642   0.862654060
H        0.139828352   0.240132384   0.133338000
H        0.620490780   0.265554886   0.192898390
H        0.094602275   0.715383308   0.304331575
H        0.127589901   0.282294094   0.818789896
H        0.596627011   0.788471219   0.242502792
H        0.113260442   0.785800428   0.819694696
H        0.655353500   0.246846584   0.885111628
H        0.623753716   0.783264093   0.819380196
H        0.340797917   0.138898406   0.310505293
H        0.864928337   0.134758970   0.263248689
H        0.353338919   0.640390735   0.214193025
H        0.359328927   0.126517066   0.762063218
H        0.858558469   0.668443558   0.256280302
H        0.340324660   0.643996848   0.717245419
H        0.830382701   0.138428497   0.686288570
H        0.850695839   0.620970452   0.765089727
H        0.345554837   0.256946709   0.377512874
H        0.898257733   0.235381512   0.347251258
H        0.403532854   0.761647429   0.254536916
H        0.393151418   0.209852607   0.658961621
H        0.910925239   0.794826215   0.264477480
H        0.393002847   0.759618116   0.668966676
H        0.835150346   0.260733199   0.624225351
H        0.888367903   0.702310746   0.661705262



     Writing output data file FAPbI83_vcrelax4.save/
     NEW-OLD atomic charge density approx. for the potential
     extrapolated charge  431.98451, renormalised to  432.00000

     total cpu time spent up to now is   587948.5 secs

     Self-consistent Calculation

     iteration #  1     ecut=   120.00 Ry     beta= 0.70
     Davidson diagonalization with overlap
     ethr =  1.00E-06,  avg # of iterations =  4.0

     Threshold (ethr) on eigenvalues was too large:
     Diagonalizing with lowered threshold

     Davidson diagonalization with overlap
     ethr =  6.54E-08,  avg # of iterations =  1.6

     total cpu time spent up to now is   595208.1 secs

     total energy              =  -16707.45914794 Ry
     Harris-Foulkes estimate   =  -16707.48384191 Ry
     estimated scf accuracy    <       0.00027815 Ry

     iteration #  2     ecut=   120.00 Ry     beta= 0.70
     Davidson diagonalization with overlap
     ethr =  6.44E-08,  avg # of iterations =  2.0

     total cpu time spent up to now is   598367.1 secs

     total energy              =  -16707.45920123 Ry
     Harris-Foulkes estimate   =  -16707.45920529 Ry
     estimated scf accuracy    <       0.00004324 Ry

     iteration #  3     ecut=   120.00 Ry     beta= 0.70
     Davidson diagonalization with overlap
     ethr =  1.00E-08,  avg # of iterations =  3.9

     total cpu time spent up to now is   601934.0 secs

     total energy              =  -16707.45920959 Ry
     Harris-Foulkes estimate   =  -16707.45921604 Ry
     estimated scf accuracy    <       0.00002567 Ry

     iteration #  4     ecut=   120.00 Ry     beta= 0.70
     Davidson diagonalization with overlap
     ethr =  5.94E-09,  avg # of iterations =  3.0
