 INFO
nunit      1    1    1
unit   tr_asym
celltype   primcell
shape   parapipedal
 END_INFO
 DIM-GROUP
           3           1
 PRIMVEC
   12.6939538580    0.0000000000    0.0000000000
    0.0000000000   12.8542493470    0.0000000000
    0.0000000000    0.0000000000   12.6876488380
 CONVVEC
   12.6939538580    0.0000000000    0.0000000000
    0.0000000000   12.8542493470    0.0000000000
    0.0000000000    0.0000000000   12.6876488380
 PRIMCOORD
          96           1
 82     -0.1579266480    -0.3068484650     0.1004101670    -0.0001580900    -0.0000264700     0.0001221600
 82      6.1708759920    -0.2399493470     0.0286928130    -0.0001935200    -0.0000648800    -0.0000776100
 82     -0.1809687130     6.1934288930     0.1264395510    -0.0001232400    -0.0000610600    -0.0000171200
 82      0.2944742910    -0.2361509420     6.4968524480    -0.0000067600     0.0000529700     0.0001240900
 82      6.1842734570     6.2041023930    -0.0479831650    -0.0000550800    -0.0000629800    -0.0000089800
 82      0.2633946430     6.1440678430     6.4218254070     0.0000873100     0.0001263200    -0.0000402600
 82      6.6731354810    -0.2286122460     6.3820466590     0.0000108000     0.0000957600     0.0000289700
 82      6.6048116580     6.2394395090     6.3461077900     0.0001682500     0.0000659800     0.0000384900
 53      3.0059629150    -0.1196897720    -0.5239192030     0.0000103400     0.0001128900    -0.0002013700
 53      9.3565167470    -0.0572376330     0.5490437680    -0.0000334700    -0.0000493900    -0.0000921900
 53      2.9888826550     6.2716750610     0.7491724730     0.0000319700     0.0000540000    -0.0001306300
 53      3.4498858800    -0.3917330430     6.6791918510    -0.0000660000    -0.0002555100     0.0000854600
 53      9.3457679890     6.2969908620    -0.6702609690     0.0000406200     0.0001187900    -0.0000551400
 53      3.4540112370     6.0908064920     5.8443892820    -0.0000963900    -0.0000276400    -0.0000330700
 53      9.7978619750    -0.2240645280     6.0912251680     0.0001478000    -0.0001618300    -0.0001174300
 53      9.8065181470     5.9350270520     6.8484044990    -0.0000975700     0.0000067800     0.0000478100
 53     -0.3687288940     2.9968421740     0.1016894370     0.0000819700     0.0000595400    -0.0001323500
 53      5.9727607430     2.9855421570     0.1087966140     0.0001103300     0.0001256900    -0.0000157900
 53     -0.3926043050     9.4170156930     0.0311671460    -0.0001119000    -0.0000136500     0.0001416000
 53      0.5414809880     2.9540072000     6.3899191550    -0.0001581600    -0.0000654900     0.0000482500
 53      5.9655043840     9.4178338150    -0.0116769890    -0.0001144500     0.0001063800     0.0000446600
 53      0.3178502700     9.3672387570     6.4928423520     0.0002986200     0.0000360100     0.0001106500
 53      6.7580312100     2.9708330530     6.3936736080    -0.0001997000     0.0000095100    -0.0000642800
 53      6.8780403070     9.4011460040     6.3986303290    -0.0000224800    -0.0000454300    -0.0002418300
 53      0.4512256050    -0.4233213840     3.2773161840     0.0000173300     0.0000880300     0.0000474000
 53      5.9607061200    -0.2750040680     3.2223787280    -0.0000479400     0.0002343800    -0.0000779400
 53     -0.6478093670     6.2190392490     3.2739129250    -0.0000808100     0.0000153100     0.0000305200
 53     -0.5255165510    -0.2384006800     9.6249136310     0.0000989400    -0.0000126500    -0.0000510700
 53      7.0074084400     6.2080893700     3.1347411410    -0.0000327100    -0.0000137900    -0.0000563500
 53      0.6437717120     6.1450383900     9.6216104650    -0.0000505300    -0.0000088000     0.0000148600
 53      6.7665331380    -0.3107715820     9.5834611790    -0.0000368700    -0.0001127100     0.0001995300
 53      5.7953468830     6.0301897210     9.4931935310    -0.0000085600     0.0001658100    -0.0000385500
  6      2.9981217330     3.2288094950     3.1842681020     0.0006346800     0.0001914200     0.0005188900
  6      9.6880950960     3.2717454640     3.5143526760    -0.0001657500     0.0000339700    -0.0002993000
  6      3.1214908310     9.4378014260     3.7329442830    -0.0003458700    -0.0001793800     0.0000504700
  6      3.2804211000     3.2301280580     9.3090524310    -0.0001549300    -0.0004256700    -0.0004651100
  6      9.5303844740    10.1864323930     3.2002965730    -0.0000049700    -0.0004768800     0.0001105100
  6      3.2266755220     9.9266500960     9.4811280210     0.0003580200    -0.0000393600     0.0005282700
  6      9.3108179030     3.2463893510     9.5910666120    -0.0001656200     0.0000716000     0.0007146400
  6      9.6333939040     9.6549507660     9.3305065220    -0.0004200600    -0.0001279900    -0.0001459600
  7      2.5866604460     2.5324303690     2.1505353910    -0.0005046700    -0.0002468000    -0.0005417000
  7      8.7947956420     3.0266514350     2.5818183150     0.0002073000     0.0002500800     0.0002728200
  7      2.0805105390     8.7299079130     3.3621946140    -0.0000636200     0.0004005900     0.0002619400
  7      2.3790053350     3.0090421800    10.2394807820    -0.0000532400     0.0000132800     0.0003183800
  7      8.4380419830     9.5538139700     2.8348533360     0.0001486000    -0.0004382900    -0.0002830700
  7      2.2367029270     9.4030934230    10.1681833770     0.0000406700    -0.0000835600     0.0001266300
  7      8.9456495870     2.6022440730    10.6759448850     0.0001716000     0.0000509800    -0.0005111300
  7      8.7399700240     9.5592055170    10.2891695610     0.0003191700     0.0001790700    -0.0001751200
  7      3.9890223450     2.8866580550     3.9755539390    -0.0003501500     0.0002277100    -0.0002891700
  7     10.7561434030     2.5420059750     3.7393302180     0.0004509300    -0.0003936000     0.0001705400
  7      4.3399441480     9.2598956840     3.2758599210     0.0001571400    -0.0001143900    -0.0000167200
  7      4.3084384400     2.4515273050     9.0621276040    -0.0001841300     0.0002128600     0.0000842500
  7     10.6663184730     9.6192194880     3.5305256600     0.0001506600     0.0001074100     0.0002545800
  7      4.1711798980     9.2345563590     8.8875458480    -0.0003778400     0.0000196600    -0.0002827900
  7     10.2876144410     2.8796089640     8.7934569850     0.0002891600     0.0000969600    -0.0002298800
  7     10.6147246970     8.8028125500     9.1442582950     0.0002358100     0.0000780800     0.0000149000
  1      2.4870632400     4.1684123560     3.4044300210    -0.0003155800    -0.0000012100    -0.0001914200
  1      9.5315858050     4.1475301390     4.1495716660    -0.0002031100     0.0000485800    -0.0001087700
  1      2.9700735150    10.2286074300     4.4736496410    -0.0000608100    -0.0005599600     0.0004143100
  1      3.1650193380     4.1269249570     8.6957577240     0.0000918000     0.0000679200     0.0002368300
  1      9.4909404500    11.2760127490     3.2331231750    -0.0001436400    -0.0002223700    -0.0000524600
  1      3.2673243420    11.0140862470     9.3939321540    -0.0000287500    -0.0004055500    -0.0000248700
  1      8.7672735130     4.1583950390     9.3331508180     0.0000408900    -0.0000727200    -0.0002720000
  1      9.5560360100    10.5001726130     8.6415232530     0.0001272300     0.0000526200     0.0001604000
  1      3.0150502250     1.6510354570     1.8648028150    -0.0000676300     0.0002926000     0.0000658400
  1      8.8699023530     2.2252384380     1.9457487710    -0.0002420300     0.0005152600     0.0001278300
  1      2.1547169820     7.9608137650     2.6865322590     0.0001061500     0.0000942400    -0.0004325400
  1      2.4207451370     2.1943649990    10.8604656250     0.0001170500    -0.0001053200    -0.0001994600
  1      8.3404543820     8.5323895570     2.8166397460     0.0003287800     0.0002447300    -0.0001305500
  1      2.0714508650     8.3935123110    10.2248458580     0.0001556800    -0.0003512000     0.0002025100
  1      9.4017964100     1.7468461470    10.9974868270    -0.0000303000    -0.0001896000     0.0000976100
  1      8.7491961040     8.7879569450    10.9639875520    -0.0001938800     0.0002339300    -0.0000693600
  1      1.7975070000     2.8628548390     1.5842154740    -0.0000370000    -0.0004593400    -0.0003228200
  1      8.0038188750     3.6635325850     2.4749518090    -0.0001548800    -0.0000579600    -0.0003726000
  1      1.1956115250     8.8718336090     3.8458576580     0.0000369100    -0.0004044900    -0.0003609200
  1      1.6126717470     3.6740805760    10.3553601490    -0.0000411300     0.0000160500    -0.0000674900
  1      7.6200808790    10.1007876020     2.5732031480     0.0001501100     0.0000423900    -0.0005102500
  1      1.5506217200    10.0004716390    10.6269824740     0.0002038400    -0.0001023900     0.0003757800
  1      8.1609152880     2.9398584250    11.2406265220    -0.0001094400    -0.0000526100    -0.0001553800
  1      7.9945348350    10.2551160030    10.3451198340    -0.0003002200     0.0000228500     0.0002137400
  1      4.5289490100     2.0262325880     3.8453802100     0.0003998000     0.0004629700     0.0002919500
  1     10.9848580250     1.7055587600     3.2015196750    -0.0000338300    -0.0001247800     0.0000236800
  1      4.5644952290     8.5620160050     2.5656513580     0.0001864100     0.0008684000     0.0002605400
  1      4.4940792770     1.5956319450     9.5856274550    -0.0000031900     0.0000952300    -0.0002111000
  1     10.8349320710     8.6075343160     3.4927507870    -0.0004621900    -0.0003066700     0.0002282200
  1      4.2664360130     8.2176486600     8.9799678840    -0.0000195600     0.0001468400    -0.0002265700
  1     10.8482242790     2.0356098140     8.9559449500    -0.0000489900     0.0002624200     0.0003622800
  1     10.7396818080     7.9789366110     9.7330532150     0.0000427800     0.0000727700    -0.0000452400
  1      4.2325934110     3.4939975170     4.7589625730     0.0004359500     0.0000629500     0.0002655100
  1     11.4025577680     2.7922810250     4.4945351220     0.0000767900    -0.0002404600     0.0000310400
  1      5.0714418960     9.9118597140     3.5566203350     0.0003780900     0.0000144700     0.0003633000
  1      4.9755223830     2.6982579370     8.3229425690     0.0000055500    -0.0000430600    -0.0000627000
  1     11.4567897660    10.2238517430     3.7630896290    -0.0005406600     0.0000089900     0.0005030000
  1      4.8908444310     9.7067445860     8.3370312130     0.0000560300    -0.0001162200    -0.0004542500
  1     10.4908368480     3.4518932440     7.9721898400     0.0000365400     0.0003736900     0.0002211200
  1     11.2750732910     8.9473640980     8.3744739620     0.0002775000    -0.0000836500     0.0000059400
 CONVCOORD
          96           1
 82     -0.1579266480    -0.3068484650     0.1004101670
 82      6.1708759920    -0.2399493470     0.0286928130
 82     -0.1809687130     6.1934288930     0.1264395510
 82      0.2944742910    -0.2361509420     6.4968524480
 82      6.1842734570     6.2041023930    -0.0479831650
 82      0.2633946430     6.1440678430     6.4218254070
 82      6.6731354810    -0.2286122460     6.3820466590
 82      6.6048116580     6.2394395090     6.3461077900
 53      3.0059629150    -0.1196897720    -0.5239192030
 53      9.3565167470    -0.0572376330     0.5490437680
 53      2.9888826550     6.2716750610     0.7491724730
 53      3.4498858800    -0.3917330430     6.6791918510
 53      9.3457679890     6.2969908620    -0.6702609690
 53      3.4540112370     6.0908064920     5.8443892820
 53      9.7978619750    -0.2240645280     6.0912251680
 53      9.8065181470     5.9350270520     6.8484044990
 53     -0.3687288940     2.9968421740     0.1016894370
 53      5.9727607430     2.9855421570     0.1087966140
 53     -0.3926043050     9.4170156930     0.0311671460
 53      0.5414809880     2.9540072000     6.3899191550
 53      5.9655043840     9.4178338150    -0.0116769890
 53      0.3178502700     9.3672387570     6.4928423520
 53      6.7580312100     2.9708330530     6.3936736080
 53      6.8780403070     9.4011460040     6.3986303290
 53      0.4512256050    -0.4233213840     3.2773161840
 53      5.9607061200    -0.2750040680     3.2223787280
 53     -0.6478093670     6.2190392490     3.2739129250
 53     -0.5255165510    -0.2384006800     9.6249136310
 53      7.0074084400     6.2080893700     3.1347411410
 53      0.6437717120     6.1450383900     9.6216104650
 53      6.7665331380    -0.3107715820     9.5834611790
 53      5.7953468830     6.0301897210     9.4931935310
  6      2.9981217330     3.2288094950     3.1842681020
  6      9.6880950960     3.2717454640     3.5143526760
  6      3.1214908310     9.4378014260     3.7329442830
  6      3.2804211000     3.2301280580     9.3090524310
  6      9.5303844740    10.1864323930     3.2002965730
  6      3.2266755220     9.9266500960     9.4811280210
  6      9.3108179030     3.2463893510     9.5910666120
  6      9.6333939040     9.6549507660     9.3305065220
  7      2.5866604460     2.5324303690     2.1505353910
  7      8.7947956420     3.0266514350     2.5818183150
  7      2.0805105390     8.7299079130     3.3621946140
  7      2.3790053350     3.0090421800    10.2394807820
  7      8.4380419830     9.5538139700     2.8348533360
  7      2.2367029270     9.4030934230    10.1681833770
  7      8.9456495870     2.6022440730    10.6759448850
  7      8.7399700240     9.5592055170    10.2891695610
  7      3.9890223450     2.8866580550     3.9755539390
  7     10.7561434030     2.5420059750     3.7393302180
  7      4.3399441480     9.2598956840     3.2758599210
  7      4.3084384400     2.4515273050     9.0621276040
  7     10.6663184730     9.6192194880     3.5305256600
  7      4.1711798980     9.2345563590     8.8875458480
  7     10.2876144410     2.8796089640     8.7934569850
  7     10.6147246970     8.8028125500     9.1442582950
  1      2.4870632400     4.1684123560     3.4044300210
  1      9.5315858050     4.1475301390     4.1495716660
  1      2.9700735150    10.2286074300     4.4736496410
  1      3.1650193380     4.1269249570     8.6957577240
  1      9.4909404500    11.2760127490     3.2331231750
  1      3.2673243420    11.0140862470     9.3939321540
  1      8.7672735130     4.1583950390     9.3331508180
  1      9.5560360100    10.5001726130     8.6415232530
  1      3.0150502250     1.6510354570     1.8648028150
  1      8.8699023530     2.2252384380     1.9457487710
  1      2.1547169820     7.9608137650     2.6865322590
  1      2.4207451370     2.1943649990    10.8604656250
  1      8.3404543820     8.5323895570     2.8166397460
  1      2.0714508650     8.3935123110    10.2248458580
  1      9.4017964100     1.7468461470    10.9974868270
  1      8.7491961040     8.7879569450    10.9639875520
  1      1.7975070000     2.8628548390     1.5842154740
  1      8.0038188750     3.6635325850     2.4749518090
  1      1.1956115250     8.8718336090     3.8458576580
  1      1.6126717470     3.6740805760    10.3553601490
  1      7.6200808790    10.1007876020     2.5732031480
  1      1.5506217200    10.0004716390    10.6269824740
  1      8.1609152880     2.9398584250    11.2406265220
  1      7.9945348350    10.2551160030    10.3451198340
  1      4.5289490100     2.0262325880     3.8453802100
  1     10.9848580250     1.7055587600     3.2015196750
  1      4.5644952290     8.5620160050     2.5656513580
  1      4.4940792770     1.5956319450     9.5856274550
  1     10.8349320710     8.6075343160     3.4927507870
  1      4.2664360130     8.2176486600     8.9799678840
  1     10.8482242790     2.0356098140     8.9559449500
  1     10.7396818080     7.9789366110     9.7330532150
  1      4.2325934110     3.4939975170     4.7589625730
  1     11.4025577680     2.7922810250     4.4945351220
  1      5.0714418960     9.9118597140     3.5566203350
  1      4.9755223830     2.6982579370     8.3229425690
  1     11.4567897660    10.2238517430     3.7630896290
  1      4.8908444310     9.7067445860     8.3370312130
  1     10.4908368480     3.4518932440     7.9721898400
  1     11.2750732910     8.9473640980     8.3744739620
 RECIP-PRIMVEC
    0.0787776615    0.0000000000    0.0000000000

    0.0000000000    0.0777952857    0.0000000000

    0.0000000000    0.0000000000    0.0788168094

 RECIP-CONVVEC
    0.0787776615    0.0000000000    0.0000000000

    0.0000000000    0.0777952857    0.0000000000

    0.0000000000    0.0000000000    0.0788168094

 WIGNER-SEITZ-PRIMCELL
           4
 -0.6346977E+01 -0.6427125E+01  0.6343824E+01  -0.1000000E+01  0.0000000E+00  0.0000000E+00
 -0.6346977E+01  0.6427125E+01  0.6343824E+01  -0.1000000E+01  0.0000000E+00  0.0000000E+00
 -0.6346977E+01  0.6427125E+01 -0.6343824E+01  -0.1000000E+01  0.0000000E+00  0.0000000E+00
 -0.6346977E+01 -0.6427125E+01 -0.6343824E+01  -0.1000000E+01  0.0000000E+00  0.0000000E+00
           4
 -0.6346977E+01 -0.6427125E+01 -0.6343824E+01  -0.0000000E+00 -0.1000000E+01 -0.0000000E+00
  0.6346977E+01 -0.6427125E+01 -0.6343824E+01  -0.0000000E+00 -0.1000000E+01 -0.0000000E+00
  0.6346977E+01 -0.6427125E+01  0.6343824E+01  -0.0000000E+00 -0.1000000E+01 -0.0000000E+00
 -0.6346977E+01 -0.6427125E+01  0.6343824E+01  -0.0000000E+00 -0.1000000E+01 -0.0000000E+00
           4
 -0.6346977E+01  0.6427125E+01 -0.6343824E+01   0.8709166E-16  0.0000000E+00 -0.1000000E+01
  0.6346977E+01  0.6427125E+01 -0.6343824E+01   0.8709166E-16  0.0000000E+00 -0.1000000E+01
  0.6346977E+01 -0.6427125E+01 -0.6343824E+01   0.8709166E-16  0.0000000E+00 -0.1000000E+01
 -0.6346977E+01 -0.6427125E+01 -0.6343824E+01   0.8709166E-16  0.0000000E+00 -0.1000000E+01
           4
  0.6346977E+01 -0.6427125E+01  0.6343824E+01  -0.0000000E+00 -0.0000000E+00  0.1000000E+01
  0.6346977E+01  0.6427125E+01  0.6343824E+01  -0.0000000E+00 -0.0000000E+00  0.1000000E+01
 -0.6346977E+01  0.6427125E+01  0.6343824E+01  -0.0000000E+00 -0.0000000E+00  0.1000000E+01
 -0.6346977E+01 -0.6427125E+01  0.6343824E+01  -0.0000000E+00 -0.0000000E+00  0.1000000E+01
           4
  0.6346977E+01  0.6427125E+01  0.6343824E+01   0.0000000E+00  0.1000000E+01 -0.8823525E-16
  0.6346977E+01  0.6427125E+01 -0.6343824E+01   0.0000000E+00  0.1000000E+01 -0.8823525E-16
 -0.6346977E+01  0.6427125E+01 -0.6343824E+01   0.0000000E+00  0.1000000E+01 -0.8823525E-16
 -0.6346977E+01  0.6427125E+01  0.6343824E+01   0.0000000E+00  0.1000000E+01 -0.8823525E-16
           4
  0.6346977E+01 -0.6427125E+01  0.6343824E+01   0.1000000E+01 -0.0000000E+00 -0.0000000E+00
  0.6346977E+01 -0.6427125E+01 -0.6343824E+01   0.1000000E+01 -0.0000000E+00 -0.0000000E+00
  0.6346977E+01  0.6427125E+01 -0.6343824E+01   0.1000000E+01 -0.0000000E+00 -0.0000000E+00
  0.6346977E+01  0.6427125E+01  0.6343824E+01   0.1000000E+01 -0.0000000E+00 -0.0000000E+00
 WIGNER-SEITZ-PRIMCELL_END
 WIGNER-SEITZ-CONVCELL
           4
 -0.6346977E+01 -0.6427125E+01  0.6343824E+01  -0.1000000E+01  0.0000000E+00  0.0000000E+00
 -0.6346977E+01  0.6427125E+01  0.6343824E+01  -0.1000000E+01  0.0000000E+00  0.0000000E+00
 -0.6346977E+01  0.6427125E+01 -0.6343824E+01  -0.1000000E+01  0.0000000E+00  0.0000000E+00
 -0.6346977E+01 -0.6427125E+01 -0.6343824E+01  -0.1000000E+01  0.0000000E+00  0.0000000E+00
           4
 -0.6346977E+01 -0.6427125E+01 -0.6343824E+01  -0.0000000E+00 -0.1000000E+01 -0.0000000E+00
  0.6346977E+01 -0.6427125E+01 -0.6343824E+01  -0.0000000E+00 -0.1000000E+01 -0.0000000E+00
  0.6346977E+01 -0.6427125E+01  0.6343824E+01  -0.0000000E+00 -0.1000000E+01 -0.0000000E+00
 -0.6346977E+01 -0.6427125E+01  0.6343824E+01  -0.0000000E+00 -0.1000000E+01 -0.0000000E+00
           4
 -0.6346977E+01  0.6427125E+01 -0.6343824E+01   0.8709166E-16  0.0000000E+00 -0.1000000E+01
  0.6346977E+01  0.6427125E+01 -0.6343824E+01   0.8709166E-16  0.0000000E+00 -0.1000000E+01
  0.6346977E+01 -0.6427125E+01 -0.6343824E+01   0.8709166E-16  0.0000000E+00 -0.1000000E+01
 -0.6346977E+01 -0.6427125E+01 -0.6343824E+01   0.8709166E-16  0.0000000E+00 -0.1000000E+01
           4
  0.6346977E+01 -0.6427125E+01  0.6343824E+01  -0.0000000E+00 -0.0000000E+00  0.1000000E+01
  0.6346977E+01  0.6427125E+01  0.6343824E+01  -0.0000000E+00 -0.0000000E+00  0.1000000E+01
 -0.6346977E+01  0.6427125E+01  0.6343824E+01  -0.0000000E+00 -0.0000000E+00  0.1000000E+01
 -0.6346977E+01 -0.6427125E+01  0.6343824E+01  -0.0000000E+00 -0.0000000E+00  0.1000000E+01
           4
  0.6346977E+01  0.6427125E+01  0.6343824E+01   0.0000000E+00  0.1000000E+01 -0.8823525E-16
  0.6346977E+01  0.6427125E+01 -0.6343824E+01   0.0000000E+00  0.1000000E+01 -0.8823525E-16
 -0.6346977E+01  0.6427125E+01 -0.6343824E+01   0.0000000E+00  0.1000000E+01 -0.8823525E-16
 -0.6346977E+01  0.6427125E+01  0.6343824E+01   0.0000000E+00  0.1000000E+01 -0.8823525E-16
           4
  0.6346977E+01 -0.6427125E+01  0.6343824E+01   0.1000000E+01 -0.0000000E+00 -0.0000000E+00
  0.6346977E+01 -0.6427125E+01 -0.6343824E+01   0.1000000E+01 -0.0000000E+00 -0.0000000E+00
  0.6346977E+01  0.6427125E+01 -0.6343824E+01   0.1000000E+01 -0.0000000E+00 -0.0000000E+00
  0.6346977E+01  0.6427125E+01  0.6343824E+01   0.1000000E+01 -0.0000000E+00 -0.0000000E+00
 WIGNER-SEITZ-CONVCELL_END
 BRILLOUIN-ZONE-PRIMCELL
           4
  0.3938883E-01 -0.3889764E-01  0.3940840E-01   0.0000000E+00 -0.1000000E+01  0.0000000E+00
 -0.3938883E-01 -0.3889764E-01  0.3940840E-01   0.0000000E+00 -0.1000000E+01  0.0000000E+00
 -0.3938883E-01 -0.3889764E-01 -0.3940840E-01   0.0000000E+00 -0.1000000E+01  0.0000000E+00
  0.3938883E-01 -0.3889764E-01 -0.3940840E-01   0.0000000E+00 -0.1000000E+01  0.0000000E+00
           4
  0.3938883E-01 -0.3889764E-01 -0.3940840E-01   0.1000000E+01 -0.0000000E+00 -0.0000000E+00
  0.3938883E-01  0.3889764E-01 -0.3940840E-01   0.1000000E+01 -0.0000000E+00 -0.0000000E+00
  0.3938883E-01  0.3889764E-01  0.3940840E-01   0.1000000E+01 -0.0000000E+00 -0.0000000E+00
  0.3938883E-01 -0.3889764E-01  0.3940840E-01   0.1000000E+01 -0.0000000E+00 -0.0000000E+00
           4
 -0.3938883E-01 -0.3889764E-01 -0.3940840E-01   0.0000000E+00  0.0000000E+00 -0.1000000E+01
 -0.3938883E-01  0.3889764E-01 -0.3940840E-01   0.0000000E+00  0.0000000E+00 -0.1000000E+01
  0.3938883E-01  0.3889764E-01 -0.3940840E-01   0.0000000E+00  0.0000000E+00 -0.1000000E+01
  0.3938883E-01 -0.3889764E-01 -0.3940840E-01   0.0000000E+00  0.0000000E+00 -0.1000000E+01
           4
 -0.3938883E-01 -0.3889764E-01  0.3940840E-01   0.7076425E-16 -0.0000000E+00  0.1000000E+01
  0.3938883E-01 -0.3889764E-01  0.3940840E-01   0.7076425E-16 -0.0000000E+00  0.1000000E+01
  0.3938883E-01  0.3889764E-01  0.3940840E-01   0.7076425E-16 -0.0000000E+00  0.1000000E+01
 -0.3938883E-01  0.3889764E-01  0.3940840E-01   0.7076425E-16 -0.0000000E+00  0.1000000E+01
           4
 -0.3938883E-01 -0.3889764E-01  0.3940840E-01  -0.1000000E+01  0.0000000E+00  0.0000000E+00
 -0.3938883E-01  0.3889764E-01  0.3940840E-01  -0.1000000E+01  0.0000000E+00  0.0000000E+00
 -0.3938883E-01  0.3889764E-01 -0.3940840E-01  -0.1000000E+01  0.0000000E+00  0.0000000E+00
 -0.3938883E-01 -0.3889764E-01 -0.3940840E-01  -0.1000000E+01  0.0000000E+00  0.0000000E+00
           4
  0.3938883E-01  0.3889764E-01  0.3940840E-01  -0.0000000E+00  0.1000000E+01 -0.6984709E-16
  0.3938883E-01  0.3889764E-01 -0.3940840E-01  -0.0000000E+00  0.1000000E+01 -0.6984709E-16
 -0.3938883E-01  0.3889764E-01 -0.3940840E-01  -0.0000000E+00  0.1000000E+01 -0.6984709E-16
 -0.3938883E-01  0.3889764E-01  0.3940840E-01  -0.0000000E+00  0.1000000E+01 -0.6984709E-16
 BRILLOUIN-ZONE-PRIMCELL_END
 BRILLOUIN-ZONE-CONVCELL
           4
  0.3938883E-01 -0.3889764E-01  0.3940840E-01   0.0000000E+00 -0.1000000E+01  0.0000000E+00
 -0.3938883E-01 -0.3889764E-01  0.3940840E-01   0.0000000E+00 -0.1000000E+01  0.0000000E+00
 -0.3938883E-01 -0.3889764E-01 -0.3940840E-01   0.0000000E+00 -0.1000000E+01  0.0000000E+00
  0.3938883E-01 -0.3889764E-01 -0.3940840E-01   0.0000000E+00 -0.1000000E+01  0.0000000E+00
           4
  0.3938883E-01 -0.3889764E-01 -0.3940840E-01   0.1000000E+01 -0.0000000E+00 -0.0000000E+00
  0.3938883E-01  0.3889764E-01 -0.3940840E-01   0.1000000E+01 -0.0000000E+00 -0.0000000E+00
  0.3938883E-01  0.3889764E-01  0.3940840E-01   0.1000000E+01 -0.0000000E+00 -0.0000000E+00
  0.3938883E-01 -0.3889764E-01  0.3940840E-01   0.1000000E+01 -0.0000000E+00 -0.0000000E+00
           4
 -0.3938883E-01 -0.3889764E-01 -0.3940840E-01   0.0000000E+00  0.0000000E+00 -0.1000000E+01
 -0.3938883E-01  0.3889764E-01 -0.3940840E-01   0.0000000E+00  0.0000000E+00 -0.1000000E+01
  0.3938883E-01  0.3889764E-01 -0.3940840E-01   0.0000000E+00  0.0000000E+00 -0.1000000E+01
  0.3938883E-01 -0.3889764E-01 -0.3940840E-01   0.0000000E+00  0.0000000E+00 -0.1000000E+01
           4
 -0.3938883E-01 -0.3889764E-01  0.3940840E-01   0.7076425E-16 -0.0000000E+00  0.1000000E+01
  0.3938883E-01 -0.3889764E-01  0.3940840E-01   0.7076425E-16 -0.0000000E+00  0.1000000E+01
  0.3938883E-01  0.3889764E-01  0.3940840E-01   0.7076425E-16 -0.0000000E+00  0.1000000E+01
 -0.3938883E-01  0.3889764E-01  0.3940840E-01   0.7076425E-16 -0.0000000E+00  0.1000000E+01
           4
 -0.3938883E-01 -0.3889764E-01  0.3940840E-01  -0.1000000E+01  0.0000000E+00  0.0000000E+00
 -0.3938883E-01  0.3889764E-01  0.3940840E-01  -0.1000000E+01  0.0000000E+00  0.0000000E+00
 -0.3938883E-01  0.3889764E-01 -0.3940840E-01  -0.1000000E+01  0.0000000E+00  0.0000000E+00
 -0.3938883E-01 -0.3889764E-01 -0.3940840E-01  -0.1000000E+01  0.0000000E+00  0.0000000E+00
           4
  0.3938883E-01  0.3889764E-01  0.3940840E-01  -0.0000000E+00  0.1000000E+01 -0.6984709E-16
  0.3938883E-01  0.3889764E-01 -0.3940840E-01  -0.0000000E+00  0.1000000E+01 -0.6984709E-16
 -0.3938883E-01  0.3889764E-01 -0.3940840E-01  -0.0000000E+00  0.1000000E+01 -0.6984709E-16
 -0.3938883E-01  0.3889764E-01  0.3940840E-01  -0.0000000E+00  0.1000000E+01 -0.6984709E-16
 BRILLOUIN-ZONE-CONVCELL_END
 ATOMS
   82   -0.1579266480   -0.3068484650    0.1004101670   -0.0001580900   -0.0000264700    0.0001221600
   82    6.1708759920   -0.2399493470    0.0286928130   -0.0001935200   -0.0000648800   -0.0000776100
   82   -0.1809687130    6.1934288930    0.1264395510   -0.0001232400   -0.0000610600   -0.0000171200
   82    0.2944742910   -0.2361509420    6.4968524480   -0.0000067600    0.0000529700    0.0001240900
   82    6.1842734570    6.2041023930   -0.0479831650   -0.0000550800   -0.0000629800   -0.0000089800
   82    0.2633946430    6.1440678430    6.4218254070    0.0000873100    0.0001263200   -0.0000402600
   82    6.6731354810   -0.2286122460    6.3820466590    0.0000108000    0.0000957600    0.0000289700
   82    6.6048116580    6.2394395090    6.3461077900    0.0001682500    0.0000659800    0.0000384900
   53    3.0059629150   -0.1196897720   -0.5239192030    0.0000103400    0.0001128900   -0.0002013700
   53    9.3565167470   -0.0572376330    0.5490437680   -0.0000334700   -0.0000493900   -0.0000921900
   53    2.9888826550    6.2716750610    0.7491724730    0.0000319700    0.0000540000   -0.0001306300
   53    3.4498858800   -0.3917330430    6.6791918510   -0.0000660000   -0.0002555100    0.0000854600
   53    9.3457679890    6.2969908620   -0.6702609690    0.0000406200    0.0001187900   -0.0000551400
   53    3.4540112370    6.0908064920    5.8443892820   -0.0000963900   -0.0000276400   -0.0000330700
   53    9.7978619750   -0.2240645280    6.0912251680    0.0001478000   -0.0001618300   -0.0001174300
   53    9.8065181470    5.9350270520    6.8484044990   -0.0000975700    0.0000067800    0.0000478100
   53   -0.3687288940    2.9968421740    0.1016894370    0.0000819700    0.0000595400   -0.0001323500
   53    5.9727607430    2.9855421570    0.1087966140    0.0001103300    0.0001256900   -0.0000157900
   53   -0.3926043050    9.4170156930    0.0311671460   -0.0001119000   -0.0000136500    0.0001416000
   53    0.5414809880    2.9540072000    6.3899191550   -0.0001581600   -0.0000654900    0.0000482500
   53    5.9655043840    9.4178338150   -0.0116769890   -0.0001144500    0.0001063800    0.0000446600
   53    0.3178502700    9.3672387570    6.4928423520    0.0002986200    0.0000360100    0.0001106500
   53    6.7580312100    2.9708330530    6.3936736080   -0.0001997000    0.0000095100   -0.0000642800
   53    6.8780403070    9.4011460040    6.3986303290   -0.0000224800   -0.0000454300   -0.0002418300
   53    0.4512256050   -0.4233213840    3.2773161840    0.0000173300    0.0000880300    0.0000474000
   53    5.9607061200   -0.2750040680    3.2223787280   -0.0000479400    0.0002343800   -0.0000779400
   53   -0.6478093670    6.2190392490    3.2739129250   -0.0000808100    0.0000153100    0.0000305200
   53   -0.5255165510   -0.2384006800    9.6249136310    0.0000989400   -0.0000126500   -0.0000510700
   53    7.0074084400    6.2080893700    3.1347411410   -0.0000327100   -0.0000137900   -0.0000563500
   53    0.6437717120    6.1450383900    9.6216104650   -0.0000505300   -0.0000088000    0.0000148600
   53    6.7665331380   -0.3107715820    9.5834611790   -0.0000368700   -0.0001127100    0.0001995300
   53    5.7953468830    6.0301897210    9.4931935310   -0.0000085600    0.0001658100   -0.0000385500
    6    2.9981217330    3.2288094950    3.1842681020    0.0006346800    0.0001914200    0.0005188900
    6    9.6880950960    3.2717454640    3.5143526760   -0.0001657500    0.0000339700   -0.0002993000
    6    3.1214908310    9.4378014260    3.7329442830   -0.0003458700   -0.0001793800    0.0000504700
    6    3.2804211000    3.2301280580    9.3090524310   -0.0001549300   -0.0004256700   -0.0004651100
    6    9.5303844740   10.1864323930    3.2002965730   -0.0000049700   -0.0004768800    0.0001105100
    6    3.2266755220    9.9266500960    9.4811280210    0.0003580200   -0.0000393600    0.0005282700
    6    9.3108179030    3.2463893510    9.5910666120   -0.0001656200    0.0000716000    0.0007146400
    6    9.6333939040    9.6549507660    9.3305065220   -0.0004200600   -0.0001279900   -0.0001459600