
     Program PWSCF v.6.4 starts on 28Jun2020 at 13:52:56 

     This program is part of the open-source Quantum ESPRESSO suite
     for quantum simulation of materials; please cite
         "P. Giannozzi et al., J. Phys.:Condens. Matter 21 395502 (2009);
         "P. Giannozzi et al., J. Phys.:Condens. Matter 29 465901 (2017);
          URL http://www.quantum-espresso.org", 
     in publications or presentations arising from this work. More details at
     http://www.quantum-espresso.org/quote

     Parallel version (MPI), running on    32 processors

     MPI processes distributed on     1 nodes
     R & G space division:  proc/nbgrp/npool/nimage =      32
     Waiting for input...
     Reading input from standard input
     Message from routine read_cards :
     DEPRECATED: no units specified in CELL_PARAMETERS card

     Current dimensions of program PWSCF are:
     Max number of different atomic species (ntypx) = 10
     Max number of k-points (npk) =  40000
     Max angular momentum in pseudopotentials (lmaxx) =  3
               file Pb.pbe-dn-kjpaw_psl.1.0.0.UPF: wavefunction(s)  6S 6P 5D renormalized
               file I.pbe-n-kjpaw_psl.1.0.0.UPF: wavefunction(s)  5S renormalized
               file C.pbe-n-kjpaw_psl.1.0.0.UPF: wavefunction(s)  2S 2P renormalized
               file N.pbe-n-kjpaw_psl.1.0.0.UPF: wavefunction(s)  2S renormalized
               file H.pbe-kjpaw_psl.1.0.0.UPF: wavefunction(s)  1S renormalized

     --------------------------------------------
     Parameters for DFT-D3 Dispersion Correction:
     --------------------------------------------
       Reference C6 values for interpolation: 

         atom   Coordination number   C6
         H          0.912             6.05
         H          0.000            15.18
         C          0.000            98.23
         C          0.987            86.49
         C          1.998            58.72
         C          2.999            51.56
         C          3.984            36.41
         N          0.000            50.54
         N          0.994            44.25
         N          2.014            39.35
         N          2.990            31.16
         I          0.000           703.93
         I          0.997           717.00
         Pb         0.000          1477.63
         Pb         0.938          1266.00
         Pb         1.936          1088.91
         Pb         2.908          1048.37
         Pb         3.910           910.57

       Values used:

         atom   Coordination number  R0_AB[au]  C6      C8
         Pb         4.771            4.041    910.57 144158.49
         Pb         4.837            4.041    910.57 144158.34
         Pb         4.698            4.041    910.58 144158.79
         Pb         4.815            4.041    910.57 144158.38
         Pb         4.673            4.041    910.58 144158.94
         Pb         4.755            4.041    910.57 144158.55
         Pb         4.830            4.041    910.57 144158.35
         Pb         4.720            4.041    910.57 144158.68
         I          1.932            3.532    717.00  65855.99
         I          1.968            3.532    717.00  65856.00
         I          1.818            3.532    717.00  65855.97
         I          1.935            3.532    717.00  65855.99
         I          1.866            3.532    717.00  65855.98
         I          1.903            3.532    717.00  65855.99
         I          1.990            3.532    717.00  65856.00
         I          1.942            3.532    717.00  65855.99
         I          1.874            3.532    717.00  65855.99
         I          1.911            3.532    717.00  65855.99
         I          1.937            3.532    717.00  65855.99
         I          1.970            3.532    717.00  65856.00
         I          1.899            3.532    717.00  65855.99
         I          1.956            3.532    717.00  65856.00
         I          1.928            3.532    717.00  65855.99
         I          1.914            3.532    717.00  65855.99
         I          1.890            3.532    717.00  65855.99
         I          1.944            3.532    717.00  65855.99
         I          1.931            3.532    717.00  65855.99
         I          1.958            3.532    717.00  65856.00
         I          1.857            3.532    717.00  65855.98
         I          1.869            3.532    717.00  65855.98
         I          1.992            3.532    717.00  65856.00
         I          1.926            3.532    717.00  65855.99
         C          3.067            2.750     51.06   1476.84
         C          3.070            2.750     51.05   1476.35
         C          3.069            2.750     51.05   1476.59
         C          3.073            2.750     51.03   1475.98
         C          3.862            2.750     37.10   1073.00
         C          3.069            2.750     51.05   1476.47
         C          3.068            2.750     51.06   1476.70
         C          3.067            2.750     51.06   1476.79
         N          3.103            2.478     31.23    689.03
         N          3.098            2.478     31.24    689.08
         N          3.113            2.478     31.23    688.91
         N          3.102            2.478     31.23    689.04
         N          3.103            2.478     31.23    689.03
         N          3.100            2.478     31.23    689.06
         N          3.105            2.478     31.23    689.01
         N          3.105            2.478     31.23    689.00
         N          3.097            2.478     31.24    689.10
         N          3.104            2.478     31.23    689.02
         N          3.100            2.478     31.23    689.06
         N          3.106            2.478     31.23    688.99
         N          3.103            2.478     31.23    689.02
         N          3.099            2.478     31.23    689.07
         N          3.099            2.478     31.24    689.07
         N          3.107            2.478     31.23    688.97
         H          1.016            2.062      6.17     74.55
         H          1.018            2.062      6.17     74.53
         H          1.018            2.062      6.17     74.54
         H          1.017            2.062      6.17     74.54
         H          1.024            2.062      6.16     74.47
         H          1.021            2.062      6.16     74.50
         H          1.017            2.062      6.17     74.54
         H          1.015            2.062      6.17     74.56
         H          1.027            2.062      6.16     74.45
         H          1.052            2.062      6.14     74.23
         H          1.057            2.062      6.14     74.20
         H          1.051            2.062      6.14     74.24
         H          1.054            2.062      6.14     74.22
         H          1.049            2.062      6.14     74.26
         H          1.034            2.062      6.15     74.39
         H          1.045            2.062      6.15     74.29
         H          1.075            2.062      6.13     74.07
         H          1.044            2.062      6.15     74.30
         H          1.042            2.062      6.15     74.31
         H          1.051            2.062      6.14     74.24
         H          1.805            2.062      6.05     73.18
         H          1.033            2.062      6.15     74.39
         H          1.060            2.062      6.14     74.18
         H          1.059            2.062      6.14     74.18
         H          1.042            2.062      6.15     74.32
         H          1.024            2.062      6.16     74.47
         H          1.026            2.062      6.16     74.46
         H          1.028            2.062      6.16     74.43
         H          1.056            2.062      6.14     74.21
         H          1.050            2.062      6.14     74.25
         H          1.053            2.062      6.14     74.23
         H          1.025            2.062      6.16     74.46
         H          1.038            2.062      6.15     74.35
         H          1.072            2.062      6.13     74.10
         H          1.039            2.062      6.15     74.34
         H          1.071            2.062      6.13     74.10
         H          1.044            2.062      6.15     74.30
         H          1.043            2.062      6.15     74.31
         H          1.044            2.062      6.15     74.30
         H          1.087            2.062      6.12     74.00

         Molecular C6 ( Ry / a.u.^6 ) =   1268070.62


     Subspace diagonalization in iterative solution of the eigenvalue problem:
     a serial algorithm will be used


     Parallelization info
     --------------------
     sticks:   dense  smooth     PW     G-vecs:    dense   smooth      PW
     Min         697     697    179                77727    77727   10169
     Max         698     698    180                77729    77729   10172
     Sum       22307   22307   5755              2487289  2487289  325455



     bravais-lattice index     =            0
     lattice parameter (alat)  =      23.7198  a.u.
     unit-cell volume          =   14004.8379 (a.u.)^3
     number of atoms/cell      =           96
     number of atomic types    =            5
     number of electrons       =       432.00
     number of Kohn-Sham states=          216
     kinetic-energy cutoff     =     120.0000  Ry
     charge density cutoff     =     480.0000  Ry
     convergence threshold     =      1.0E-07
     mixing beta               =       0.7000
     number of iterations used =            8  plain     mixing
     Exchange-correlation      = SLA PW PBX PBC ( 1  4  3  4 0 0)
     nstep                     =          100


     celldm(1)=  23.719842  celldm(2)=   0.000000  celldm(3)=   0.000000
     celldm(4)=   0.000000  celldm(5)=   0.000000  celldm(6)=   0.000000

     crystal axes: (cart. coord. in units of alat)
               a(1) = (   1.012133   0.000000   0.000000 )  
               a(2) = (   0.000000   1.025237   0.000000 )  
               a(3) = (   0.000000   0.000000   1.011302 )  

     reciprocal axes: (cart. coord. in units 2 pi/alat)
               b(1) = (  0.988012  0.000000  0.000000 )  
               b(2) = (  0.000000  0.975384  0.000000 )  
               b(3) = (  0.000000  0.000000  0.988825 )  


     PseudoPot. # 1 for Pb read from file:
     ../../../Pseudopotential/Pb.pbe-dn-kjpaw_psl.1.0.0.UPF
     MD5 check sum: 684fc8fbce61a260853528575e4d9ab7
     Pseudo is Projector augmented-wave + core cor, Zval = 14.0
     Generated using "atomic" code by A. Dal Corso v.6.3
     Shape of augmentation charge: PSQ
     Using radial grid of 1281 points,  6 beta functions with: 
                l(1) =   0
                l(2) =   0
                l(3) =   1
                l(4) =   1
                l(5) =   2
                l(6) =   2
     Q(r) pseudized with 0 coefficients 


     PseudoPot. # 2 for I  read from file:
     ../../../Pseudopotential/I.pbe-n-kjpaw_psl.1.0.0.UPF
     MD5 check sum: cd3d296c3308a581e1559a0c8a554cb5
     Pseudo is Projector augmented-wave + core cor, Zval =  7.0
     Generated using "atomic" code by A. Dal Corso v.6.3
     Shape of augmentation charge: PSQ
     Using radial grid of 1247 points,  6 beta functions with: 
                l(1) =   0
                l(2) =   0
                l(3) =   1
                l(4) =   1
                l(5) =   2
                l(6) =   2
     Q(r) pseudized with 0 coefficients 


     PseudoPot. # 3 for C  read from file:
     ../../../Pseudopotential/C.pbe-n-kjpaw_psl.1.0.0.UPF
     MD5 check sum: 5f16ad9a65e90284d1d834d4ab3b0f7d
     Pseudo is Projector augmented-wave + core cor, Zval =  4.0
     Generated using "atomic" code by A. Dal Corso v.6.3
     Shape of augmentation charge: PSQ
     Using radial grid of 1073 points,  4 beta functions with: 
                l(1) =   0
                l(2) =   0
                l(3) =   1
                l(4) =   1
     Q(r) pseudized with 0 coefficients 


     PseudoPot. # 4 for N  read from file:
     ../../../Pseudopotential/N.pbe-n-kjpaw_psl.1.0.0.UPF
     MD5 check sum: 14c48229446f9f2d411169a3abcbc3fa
     Pseudo is Projector augmented-wave + core cor, Zval =  5.0
     Generated using "atomic" code by A. Dal Corso v.6.3
     Shape of augmentation charge: PSQ
     Using radial grid of 1085 points,  4 beta functions with: 
                l(1) =   0
                l(2) =   0
                l(3) =   1
                l(4) =   1
     Q(r) pseudized with 0 coefficients 


     PseudoPot. # 5 for H  read from file:
     ../../../Pseudopotential/H.pbe-kjpaw_psl.1.0.0.UPF
     MD5 check sum: d81a744832360e4a8af0b0b5b123bc2a
     Pseudo is Projector augmented-wave, Zval =  1.0
     Generated using "atomic" code by A. Dal Corso v.6.3MaX
     Shape of augmentation charge: PSQ
     Using radial grid of  929 points,  2 beta functions with: 
                l(1) =   0
                l(2) =   0
     Q(r) pseudized with 0 coefficients 


     atomic species   valence    mass     pseudopotential
        Pb            14.00   207.97600     Pb( 1.00)
        I              7.00   126.90400     I ( 1.00)
        C              4.00    12.00000     C ( 1.00)
        N              5.00    14.00300     N ( 1.00)
        H              1.00     1.00700     H ( 1.00)

     No symmetry found



   Cartesian axes

     site n.     atom                  positions (alat units)
         1           Pb  tau(   1) = (  -0.0123327  -0.0243020   0.0077818  )
         2           Pb  tau(   2) = (   0.4924659  -0.0190533   0.0022207  )
         3           Pb  tau(   3) = (  -0.0146099   0.4940676   0.0101880  )
         4           Pb  tau(   4) = (   0.0233991  -0.0189231   0.5178242  )
         5           Pb  tau(   5) = (   0.4933369   0.4949217  -0.0039292  )
         6           Pb  tau(   6) = (   0.0207979   0.4898788   0.5117309  )
         7           Pb  tau(   7) = (   0.5321229  -0.0183593   0.5089567  )
         8           Pb  tau(   8) = (   0.5264565   0.4975279   0.5058309  )
         9           I   tau(   9) = (   0.2395623  -0.0097851  -0.0415118  )
        10           I   tau(  10) = (   0.7458721  -0.0045186   0.0439789  )
        11           I   tau(  11) = (   0.2381293   0.5001597   0.0599179  )
        12           I   tau(  12) = (   0.2749014  -0.0309117   0.5323166  )
        13           I   tau(  13) = (   0.7453561   0.5020530  -0.0533286  )
        14           I   tau(  14) = (   0.2755551   0.4858219   0.4658468  )
        15           I   tau(  15) = (   0.7813353  -0.0176716   0.4856900  )
        16           I   tau(  16) = (   0.7820119   0.4734794   0.5457742  )
        17           I   tau(  17) = (  -0.0295850   0.2388589   0.0082741  )
        18           I   tau(  18) = (   0.4759535   0.2379985   0.0087565  )
        19           I   tau(  19) = (  -0.0311932   0.7510573   0.0023619  )
        20           I   tau(  20) = (   0.0434745   0.2355613   0.5093165  )
        21           I   tau(  21) = (   0.4756648   0.7509787  -0.0009275  )
        22           I   tau(  22) = (   0.0250431   0.7472713   0.5173915  )
        23           I   tau(  23) = (   0.5392280   0.2370523   0.5096887  )
        24           I   tau(  24) = (   0.5484996   0.7498912   0.5102373  )
        25           I   tau(  25) = (   0.0360996  -0.0338941   0.2613030  )
        26           I   tau(  26) = (   0.4753104  -0.0221182   0.2563128  )
        27           I   tau(  27) = (  -0.0514985   0.4959204   0.2610033  )
        28           I   tau(  28) = (  -0.0419819  -0.0190033   0.7670713  )
        29           I   tau(  29) = (   0.5587298   0.4950947   0.2499035  )
        30           I   tau(  30) = (   0.0514061   0.4901020   0.7668102  )
        31           I   tau(  31) = (   0.5395010  -0.0246394   0.7639458  )
        32           I   tau(  32) = (   0.4621169   0.4806867   0.7567577  )
        33           C   tau(  33) = (   0.2389877   0.2574874   0.2538519  )
        34           C   tau(  34) = (   0.7724193   0.2609455   0.2801292  )
        35           C   tau(  35) = (   0.2488781   0.7528594   0.2973385  )
        36           C   tau(  36) = (   0.2615994   0.2575644   0.7420231  )
        37           C   tau(  37) = (   0.7599386   0.8124214   0.2550410  )
        38           C   tau(  38) = (   0.2572283   0.7918396   0.7556038  )
        39           C   tau(  39) = (   0.7424740   0.2588736   0.7644850  )
        40           C   tau(  40) = (   0.7680914   0.7700124   0.7437133  )
        41           N   tau(  41) = (   0.2060091   0.2021063   0.1714478  )
        42           N   tau(  42) = (   0.7012358   0.2413955   0.2057942  )
        43           N   tau(  43) = (   0.1658314   0.6964469   0.2681357  )
        44           N   tau(  44) = (   0.1897888   0.2400525   0.8161504  )
        45           N   tau(  45) = (   0.6728537   0.7620323   0.2262440  )
        46           N   tau(  46) = (   0.1782817   0.7501251   0.8102173  )
        47           N   tau(  47) = (   0.7135549   0.2076061   0.8510099  )
        48           N   tau(  48) = (   0.6969120   0.7623933   0.8201143  )
        49           N   tau(  49) = (   0.3179057   0.2300670   0.3169996  )
        50           N   tau(  50) = (   0.8575980   0.2028919   0.2981168  )
        51           N   tau(  51) = (   0.3459443   0.7384336   0.2609151  )
        52           N   tau(  52) = (   0.3433654   0.1953886   0.7222780  )
        53           N   tau(  53) = (   0.8505376   0.7673247   0.2809255  )
        54           N   tau(  54) = (   0.3326219   0.7366834   0.7085938  )
        55           N   tau(  55) = (   0.8201305   0.2295821   0.7008600  )
        56           N   tau(  56) = (   0.8462042   0.7020701   0.7287394  )
        57           H   tau(  57) = (   0.1983898   0.3325021   0.2711284  )
        58           H   tau(  58) = (   0.7598324   0.3307355   0.3307209  )
        59           H   tau(  59) = (   0.2367553   0.8161226   0.3560791  )
        60           H   tau(  60) = (   0.2523361   0.3290093   0.6931860  )
        61           H   tau(  61) = (   0.7567300   0.8992256   0.2578220  )
        62           H   tau(  62) = (   0.2603985   0.8784747   0.7487386  )
        63           H   tau(  63) = (   0.6993643   0.3315760   0.7437691  )
        64           H   tau(  64) = (   0.7620092   0.8373427   0.6887818  )
        65           H   tau(  65) = (   0.2401470   0.1319923   0.1484780  )
        66           H   tau(  66) = (   0.7070837   0.1774932   0.1551976  )
        67           H   tau(  67) = (   0.1715007   0.6348334   0.2146687  )
        68           H   tau(  68) = (   0.1930054   0.1752293   0.8646560  )
        69           H   tau(  69) = (   0.6650476   0.6806891   0.2248203  )
        70           H   tau(  70) = (   0.1648952   0.6697572   0.8148916  )
        71           H   tau(  71) = (   0.7496032   0.1393070   0.8766577  )
        72           H   tau(  72) = (   0.6974250   0.7010502   0.8739525  )
        73           H   tau(  73) = (   0.1432380   0.2282159   0.1260068  )
        74           H   tau(  74) = (   0.6380924   0.2919602   0.1971694  )
        75           H   tau(  75) = (   0.0953454   0.7076849   0.3066540  )
        76           H   tau(  76) = (   0.1287758   0.2930928   0.8252708  )
        77           H   tau(  77) = (   0.6676558   0.8060659   0.2056230  )
        78           H   tau(  78) = (   0.1235014   0.7977023   0.8466302  )
        79           H   tau(  79) = (   0.6499078   0.2344336   0.8958003  )
        80           H   tau(  80) = (   0.6374101   0.8177212   0.8248587  )
        81           H   tau(  81) = (   0.3611418   0.1616489   0.3059192  )
        82           H   tau(  82) = (   0.8760889   0.1362602   0.2554289  )
        83           H   tau(  83) = (   0.3639614   0.6825837   0.2046949  )
        84           H   tau(  84) = (   0.3583693   0.1273786   0.7641813  )
        85           H   tau(  85) = (   0.8638828   0.6867073   0.2782028  )
        86           H   tau(  86) = (   0.3401408   0.6556993   0.7160398  )
        87           H   tau(  87) = (   0.8662334   0.1622272   0.7139648  )
        88           H   tau(  88) = (   0.8564161   0.6364864   0.7756254  )
        89           H   tau(  89) = (   0.3368521   0.2790687   0.3795474  )
        90           H   tau(  90) = (   0.9101247   0.2233181   0.3580746  )
        91           H   tau(  91) = (   0.4044588   0.7913601   0.2839058  )
        92           H   tau(  92) = (   0.3967162   0.2152998   0.6636886  )
        93           H   tau(  93) = (   0.9133090   0.8157179   0.2992924  )
        94           H   tau(  94) = (   0.3901708   0.7741751   0.6648305  )
        95           H   tau(  95) = (   0.8360389   0.2751257   0.6353193  )
        96           H   tau(  96) = (   0.8990298   0.7134544   0.6675333  )

     number of k points=    32
                       cart. coord. in units 2pi/alat
        k(    1) = (   0.1235015   0.1219230   0.1236031), wk =   0.0625000
        k(    2) = (   0.1235015   0.1219230   0.3708093), wk =   0.0625000
        k(    3) = (   0.1235015   0.3657690   0.1236031), wk =   0.0625000
        k(    4) = (   0.1235015   0.3657690   0.3708093), wk =   0.0625000
        k(    5) = (   0.3705046   0.1219230   0.1236031), wk =   0.0625000
        k(    6) = (   0.3705046   0.1219230   0.3708093), wk =   0.0625000
        k(    7) = (   0.3705046   0.3657690   0.1236031), wk =   0.0625000
        k(    8) = (   0.3705046   0.3657690   0.3708093), wk =   0.0625000
        k(    9) = (  -0.1235015  -0.1219230   0.1236031), wk =   0.0625000
        k(   10) = (  -0.1235015   0.1219230  -0.1236031), wk =   0.0625000
        k(   11) = (   0.1235015  -0.1219230  -0.1236031), wk =   0.0625000
        k(   12) = (  -0.1235015  -0.1219230   0.3708093), wk =   0.0625000
        k(   13) = (  -0.1235015   0.1219230  -0.3708093), wk =   0.0625000
        k(   14) = (   0.1235015  -0.1219230  -0.3708093), wk =   0.0625000
        k(   15) = (  -0.1235015  -0.3657690   0.1236031), wk =   0.0625000
        k(   16) = (  -0.1235015   0.3657690  -0.1236031), wk =   0.0625000
        k(   17) = (   0.1235015  -0.3657690  -0.1236031), wk =   0.0625000
        k(   18) = (  -0.1235015  -0.3657690   0.3708093), wk =   0.0625000
        k(   19) = (  -0.1235015   0.3657690  -0.3708093), wk =   0.0625000
        k(   20) = (   0.1235015  -0.3657690  -0.3708093), wk =   0.0625000
        k(   21) = (  -0.3705046  -0.1219230   0.1236031), wk =   0.0625000
        k(   22) = (  -0.3705046   0.1219230  -0.1236031), wk =   0.0625000
        k(   23) = (   0.3705046  -0.1219230  -0.1236031), wk =   0.0625000
        k(   24) = (  -0.3705046  -0.1219230   0.3708093), wk =   0.0625000
        k(   25) = (  -0.3705046   0.1219230  -0.3708093), wk =   0.0625000
        k(   26) = (   0.3705046  -0.1219230  -0.3708093), wk =   0.0625000
        k(   27) = (  -0.3705046  -0.3657690   0.1236031), wk =   0.0625000
        k(   28) = (  -0.3705046   0.3657690  -0.1236031), wk =   0.0625000
        k(   29) = (   0.3705046  -0.3657690  -0.1236031), wk =   0.0625000
        k(   30) = (  -0.3705046  -0.3657690   0.3708093), wk =   0.0625000
        k(   31) = (  -0.3705046   0.3657690  -0.3708093), wk =   0.0625000
        k(   32) = (   0.3705046  -0.3657690  -0.3708093), wk =   0.0625000

     Dense  grid:  2487289 G-vectors     FFT dimensions: ( 180, 180, 180)

     Estimated max dynamical RAM per process >       1.82 GB

     Estimated total dynamical RAM >      58.27 GB

     Initial potential from superposition of free atoms

     starting charge  431.97851, renormalised to  432.00000
     Starting wfcs are  304 randomized atomic wfcs
     Checking if some PAW data can be deallocated... 

     total cpu time spent up to now is     1411.0 secs

     Self-consistent Calculation

     iteration #  1     ecut=   120.00 Ry     beta= 0.70
     Davidson diagonalization with overlap
     ethr =  1.00E-02,  avg # of iterations =  2.0

     total cpu time spent up to now is     4312.5 secs

     total energy              =  -16703.93834441 Ry
     Harris-Foulkes estimate   =  -16708.62948100 Ry
     estimated scf accuracy    <       7.32515982 Ry

     iteration #  2     ecut=   120.00 Ry     beta= 0.70
     Davidson diagonalization with overlap
     ethr =  1.70E-03,  avg # of iterations =  4.0

     total cpu time spent up to now is     8233.1 secs

     total energy              =  -16705.54732330 Ry
     Harris-Foulkes estimate   =  -16707.88171918 Ry
     estimated scf accuracy    <       4.34595886 Ry

     iteration #  3     ecut=   120.00 Ry     beta= 0.70
     Davidson diagonalization with overlap
     ethr =  1.01E-03,  avg # of iterations =  4.0

     total cpu time spent up to now is    11360.8 secs

     total energy              =  -16706.51418027 Ry
     Harris-Foulkes estimate   =  -16706.64149419 Ry
     estimated scf accuracy    <       0.24839691 Ry

     iteration #  4     ecut=   120.00 Ry     beta= 0.70
     Davidson diagonalization with overlap
     ethr =  5.75E-05,  avg # of iterations =  4.0

     total cpu time spent up to now is    15281.5 secs

     total energy              =  -16706.57421281 Ry
     Harris-Foulkes estimate   =  -16706.62023803 Ry
     estimated scf accuracy    <       0.09782519 Ry

     iteration #  5     ecut=   120.00 Ry     beta= 0.70
     Davidson diagonalization with overlap
     ethr =  2.26E-05,  avg # of iterations =  4.0

     total cpu time spent up to now is    18584.6 secs

     total energy              =  -16706.59410097 Ry
     Harris-Foulkes estimate   =  -16706.60195427 Ry
     estimated scf accuracy    <       0.01733216 Ry

     iteration #  6     ecut=   120.00 Ry     beta= 0.70
     Davidson diagonalization with overlap
     ethr =  4.01E-06,  avg # of iterations =  4.0

     total cpu time spent up to now is    21917.6 secs

     total energy              =  -16706.59786053 Ry
     Harris-Foulkes estimate   =  -16706.59826087 Ry
     estimated scf accuracy    <       0.00090606 Ry

     iteration #  7     ecut=   120.00 Ry     beta= 0.70
     Davidson diagonalization with overlap
     ethr =  2.10E-07,  avg # of iterations =  4.0

     total cpu time spent up to now is    25630.5 secs

     total energy              =  -16706.59806566 Ry
     Harris-Foulkes estimate   =  -16706.59818766 Ry
     estimated scf accuracy    <       0.00025008 Ry

     iteration #  8     ecut=   120.00 Ry     beta= 0.70
     Davidson diagonalization with overlap
     ethr =  5.79E-08,  avg # of iterations =  4.0

     total cpu time spent up to now is    29154.6 secs

     total energy              =  -16706.59812565 Ry
     Harris-Foulkes estimate   =  -16706.59814093 Ry
     estimated scf accuracy    <       0.00003532 Ry

     iteration #  9     ecut=   120.00 Ry     beta= 0.70
     Davidson diagonalization with overlap
     ethr =  8.18E-09,  avg # of iterations =  4.0

     total cpu time spent up to now is    32664.0 secs

     total energy              =  -16706.59813363 Ry
     Harris-Foulkes estimate   =  -16706.59813666 Ry
     estimated scf accuracy    <       0.00000667 Ry

     iteration # 10     ecut=   120.00 Ry     beta= 0.70
     Davidson diagonalization with overlap
     ethr =  1.54E-09,  avg # of iterations =  4.0

     total cpu time spent up to now is    36100.1 secs

     total energy              =  -16706.59813506 Ry
     Harris-Foulkes estimate   =  -16706.59813526 Ry
     estimated scf accuracy    <       0.00000042 Ry

     iteration # 11     ecut=   120.00 Ry     beta= 0.70
     Davidson diagonalization with overlap
     ethr =  9.70E-11,  avg # of iterations =  4.0

     total cpu time spent up to now is    39952.2 secs

     total energy              =  -16706.59813517 Ry
     Harris-Foulkes estimate   =  -16706.59813523 Ry
     estimated scf accuracy    <       0.00000013 Ry

     iteration # 12     ecut=   120.00 Ry     beta= 0.70
     Davidson diagonalization with overlap
     ethr =  2.91E-11,  avg # of iterations =  4.0

     total cpu time spent up to now is    43438.9 secs

     End of self-consistent calculation

          k = 0.1235 0.1219 0.1236 (310882 PWs)   bands (ev):

   -20.6377 -17.9178 -17.8834 -17.8758 -17.8723 -17.8618 -17.8233 -17.8201
   -16.8202 -15.6774 -15.6604 -15.6498 -15.6428 -15.6372 -15.5875 -15.5741
   -14.3352 -14.3269 -14.3222 -14.3198 -14.3194 -14.3056 -14.2948 -14.2930
   -14.2911 -14.2906 -14.2902 -14.2889 -14.2822 -14.2811 -14.2808 -14.2783
   -14.2761 -14.2731 -14.2694 -14.2644 -14.2628 -14.2567 -14.2520 -14.2477
   -14.2471 -14.2468 -14.2432 -14.2406 -14.2375 -14.2347 -14.2318 -14.2315
   -14.2301 -14.2266 -14.2127 -14.2117 -14.2071 -14.2069 -14.1994 -14.1886
    -9.8669  -9.8121  -9.7406  -9.7049  -9.6647  -9.6445  -9.6142  -9.6050
    -9.5299  -9.4700  -9.4334  -9.3920  -9.3724  -9.3394  -9.2998  -9.2738
    -9.2585  -9.2188  -9.2008  -9.1833  -9.1611  -9.1251  -9.1053  -9.0783
    -9.0695  -9.0595  -9.0377  -9.0222  -8.9987  -8.9779  -8.9388  -8.9121
    -8.8711  -7.7432  -7.6961  -7.6841  -7.6674  -7.6609  -7.6386  -7.6141
    -7.2316  -7.0636  -7.0535  -7.0517  -7.0450  -7.0414  -6.9920  -6.9562
    -5.8907  -5.4851  -5.4471  -5.4288  -5.3940  -5.3491  -5.3459  -5.3331
    -5.3247  -5.3146  -5.2887  -5.2622  -5.0540  -5.0114  -5.0027  -4.6133
    -4.4379  -3.8683  -3.8429  -3.8272  -3.8198  -3.8138  -3.7796  -3.7744
    -3.5148  -3.3021  -3.2975  -3.2788  -3.2766  -3.2677  -3.2448  -3.2172
    -0.8935  -0.8517  -0.8291  -0.7754  -0.7401  -0.7260  -0.7021  -0.6743
    -0.6402  -0.5903  -0.5487  -0.5149  -0.4620  -0.1680  -0.1332  -0.1153
    -0.1044  -0.0630  -0.0363  -0.0047   0.3491   0.4091   0.4328   0.4664
     0.4738   0.4987   0.5283   0.5482   0.5689   0.6137   0.6631   0.7285
     0.7541   0.7862   0.8386   0.8532   0.8755   0.9068   0.9202   0.9527
     0.9691   0.9985   1.0067   1.0279   1.0416   1.0547   1.0638   1.0791
     1.1001   1.1239   1.1400   1.1653   1.1793   1.1906   1.2078   1.2317
     1.2452   1.2642   1.2879   1.2937   1.3051   1.3325   1.3601   1.3878
     1.4025   1.4303   1.4397   1.4486   1.4860   1.4979   1.5432   1.6090
     1.6399   1.6768   1.6890   1.7310   1.7884   1.8112   1.8401   2.0866

          k = 0.1235 0.1219 0.3708 (310895 PWs)   bands (ev):

   -20.6377 -17.9178 -17.8834 -17.8758 -17.8723 -17.8618 -17.8233 -17.8201
   -16.8202 -15.6774 -15.6602 -15.6498 -15.6430 -15.6372 -15.5875 -15.5741
   -14.3351 -14.3268 -14.3218 -14.3196 -14.3193 -14.3054 -14.2948 -14.2930
   -14.2911 -14.2908 -14.2905 -14.2889 -14.2822 -14.2811 -14.2810 -14.2783
   -14.2761 -14.2731 -14.2691 -14.2645 -14.2626 -14.2567 -14.2520 -14.2477
   -14.2471 -14.2471 -14.2436 -14.2407 -14.2375 -14.2347 -14.2318 -14.2315
   -14.2300 -14.2266 -14.2127 -14.2117 -14.2071 -14.2069 -14.1994 -14.1886
    -9.8643  -9.7939  -9.7364  -9.6924  -9.6760  -9.6623  -9.6367  -9.6175
    -9.5258  -9.4522  -9.4312  -9.3928  -9.3657  -9.3407  -9.3231  -9.2908
    -9.2613  -9.2297  -9.2035  -9.1568  -9.1319  -9.1213  -9.0877  -9.0788
    -9.0727  -9.0462  -9.0439  -9.0152  -9.0026  -8.9811  -8.9575  -8.9177
    -8.8728  -7.7434  -7.6940  -7.6850  -7.6706  -7.6584  -7.6382  -7.6151
    -7.2318  -7.0634  -7.0537  -7.0517  -7.0450  -7.0415  -6.9920  -6.9562
    -5.7762  -5.6016  -5.4078  -5.3699  -5.3543  -5.3434  -5.3354  -5.3314
    -5.3117  -5.3005  -5.2859  -5.2606  -5.1702  -5.1360  -4.9183  -4.7410
    -4.4405  -3.8655  -3.8427  -3.8310  -3.8200  -3.8116  -3.7802  -3.7749
    -3.5148  -3.3016  -3.2977  -3.2789  -3.2764  -3.2678  -3.2451  -3.2172
    -0.8728  -0.8212  -0.7418  -0.7301  -0.6837  -0.6451  -0.6242  -0.5680
    -0.5527  -0.4222  -0.3595  -0.3095  -0.2155  -0.1540  -0.1289  -0.1129
    -0.0898  -0.0595  -0.0461  -0.0071   0.1468   0.2196   0.2828   0.3579
     0.3965   0.4221   0.4559   0.4882   0.5074   0.5377   0.5555   0.5827
     0.6137   0.6925   0.8051   0.8335   0.8685   0.8933   0.9056   0.9288
     0.9464   0.9617   0.9964   1.0154   1.0324   1.0454   1.0714   1.0938
     1.1116   1.1290   1.1481   1.1610   1.1967   1.2152   1.2300   1.2471
     1.2596   1.2717   1.2893   1.3135   1.3150   1.3409   1.3549   1.3699
     1.3899   1.4193   1.4320   1.4578   1.4776   1.5042   1.5207   1.5493
     1.6134   1.6340   1.6461   1.6625   1.7296   1.7388   1.8090   1.9439

          k = 0.1235 0.3658 0.1236 (310795 PWs)   bands (ev):

   -20.6377 -17.9178 -17.8834 -17.8757 -17.8723 -17.8618 -17.8233 -17.8201
   -16.8202 -15.6774 -15.6604 -15.6498 -15.6428 -15.6372 -15.5875 -15.5741
   -14.3352 -14.3269 -14.3218 -14.3195 -14.3191 -14.3055 -14.2948 -14.2930
   -14.2911 -14.2907 -14.2903 -14.2889 -14.2822 -14.2811 -14.2811 -14.2784
   -14.2761 -14.2731 -14.2697 -14.2644 -14.2629 -14.2567 -14.2520 -14.2477
   -14.2471 -14.2453 -14.2436 -14.2412 -14.2375 -14.2347 -14.2318 -14.2315
   -14.2301 -14.2271 -14.2127 -14.2117 -14.2071 -14.2069 -14.1994 -14.1886
    -9.8704  -9.8022  -9.7421  -9.7069  -9.6655  -9.6455  -9.6127  -9.6062
    -9.5080  -9.4608  -9.4334  -9.4100  -9.3837  -9.3469  -9.3289  -9.2911
    -9.2667  -9.2262  -9.1860  -9.1709  -9.1537  -9.1119  -9.1000  -9.0685
    -9.0590  -9.0516  -9.0428  -9.0175  -8.9893  -8.9665  -8.9512  -8.9176
    -8.8898  -7.7421  -7.6947  -7.6816  -7.6715  -7.6612  -7.6381  -7.6146
    -7.2314  -7.0633  -7.0519  -7.0510  -7.0457  -7.0433  -6.9919  -6.9563
    -5.7763  -5.5801  -5.4109  -5.3656  -5.3616  -5.3470  -5.3381  -5.3280
    -5.3191  -5.3089  -5.2797  -5.2634  -5.1625  -5.1358  -4.9248  -4.7511
    -4.4401  -3.8649  -3.8433  -3.8276  -3.8211  -3.8142  -3.7790  -3.7751
    -3.5148  -3.3020  -3.2972  -3.2770  -3.2764  -3.2701  -3.2449  -3.2174
    -0.8845  -0.8429  -0.7576  -0.7318  -0.7129  -0.6664  -0.5978  -0.5550
    -0.4582  -0.4021  -0.3344  -0.3027  -0.2026  -0.1437  -0.1293  -0.1169
    -0.0949  -0.0659  -0.0387  -0.0085   0.1840   0.2478   0.3060   0.3548
     0.3897   0.4497   0.4648   0.4886   0.5072   0.5303   0.5593   0.6121
     0.6448   0.6935   0.7366   0.7525   0.8047   0.8443   0.9018   0.9079
     0.9422   0.9948   1.0022   1.0177   1.0317   1.0601   1.0646   1.0861
     1.1044   1.1356   1.1537   1.1656   1.1971   1.2115   1.2282   1.2497
     1.2573   1.2636   1.2870   1.3053   1.3286   1.3430   1.3702   1.3922
     1.4013   1.4189   1.4257   1.4511   1.4741   1.4984   1.5194   1.5456
     1.5622   1.5907   1.6234   1.6693   1.6974   1.7081   1.8314   1.9072

          k = 0.1235 0.3658 0.3708 (310926 PWs)   bands (ev):

   -20.6377 -17.9178 -17.8834 -17.8757 -17.8724 -17.8618 -17.8233 -17.8201
   -16.8202 -15.6774 -15.6602 -15.6498 -15.6430 -15.6372 -15.5875 -15.5741
   -14.3351 -14.3268 -14.3215 -14.3193 -14.3190 -14.3053 -14.2948 -14.2930
   -14.2911 -14.2911 -14.2905 -14.2889 -14.2822 -14.2814 -14.2811 -14.2785
   -14.2761 -14.2731 -14.2694 -14.2645 -14.2626 -14.2567 -14.2520 -14.2477
   -14.2471 -14.2458 -14.2439 -14.2413 -14.2375 -14.2347 -14.2318 -14.2315
   -14.2301 -14.2271 -14.2127 -14.2117 -14.2071 -14.2069 -14.1994 -14.1886
    -9.8662  -9.7876  -9.7369  -9.6934  -9.6767  -9.6613  -9.6356  -9.6167
    -9.5079  -9.4461  -9.4289  -9.4072  -9.3859  -9.3534  -9.3303  -9.3051
    -9.2782  -9.2202  -9.1869  -9.1524  -9.1441  -9.1116  -9.0804  -9.0701
    -9.0575  -9.0497  -9.0357  -9.0170  -8.9937  -8.9748  -8.9546  -8.9258
    -8.8916  -7.7423  -7.6911  -7.6843  -7.6737  -7.6591  -7.6377  -7.6157
    -7.2316  -7.0634  -7.0518  -7.0511  -7.0458  -7.0433  -6.9919  -6.9563
    -5.6658  -5.5069  -5.4696  -5.3901  -5.3631  -5.3466  -5.3409  -5.3236
    -5.3185  -5.3026  -5.2629  -5.2485  -5.2286  -5.0703  -5.0360  -4.8781
    -4.4410  -3.8630  -3.8409  -3.8312  -3.8226  -3.8120  -3.7799  -3.7750
    -3.5147  -3.3017  -3.2974  -3.2773  -3.2763  -3.2700  -3.2452  -3.2175
    -0.8633  -0.7418  -0.6794  -0.6047  -0.5585  -0.4613  -0.4104  -0.3663
    -0.3541  -0.3045  -0.2863  -0.2479  -0.2014  -0.1419  -0.1286  -0.1152
    -0.0871  -0.0585  -0.0426  -0.0119   0.1218   0.1930   0.2201   0.2434
     0.2959   0.3145   0.3246   0.3860   0.4262   0.4945   0.5222   0.5416
     0.5918   0.6364   0.7094   0.7386   0.7856   0.7993   0.8238   0.8467
     0.8624   0.9148   0.9341   0.9721   0.9817   1.0280   1.0445   1.0750
     1.1102   1.1276   1.1429   1.1744   1.1994   1.2072   1.2314   1.2484
     1.2673   1.2917   1.3061   1.3288   1.3383   1.3466   1.3722   1.3798
     1.4026   1.4111   1.4363   1.4483   1.4707   1.4767   1.5102   1.5354
     1.5510   1.5694   1.6010   1.6299   1.6519   1.6750   1.7048   1.7904

          k = 0.3705 0.1219 0.1236 (310926 PWs)   bands (ev):

   -20.6377 -17.9178 -17.8834 -17.8757 -17.8723 -17.8618 -17.8233 -17.8201
   -16.8202 -15.6774 -15.6604 -15.6498 -15.6428 -15.6372 -15.5875 -15.5742
   -14.3327 -14.3292 -14.3222 -14.3197 -14.3196 -14.3054 -14.2948 -14.2930
   -14.2911 -14.2906 -14.2902 -14.2889 -14.2822 -14.2811 -14.2807 -14.2776
   -14.2761 -14.2731 -14.2695 -14.2639 -14.2635 -14.2567 -14.2520 -14.2477
   -14.2471 -14.2468 -14.2433 -14.2409 -14.2375 -14.2347 -14.2318 -14.2315
   -14.2300 -14.2271 -14.2127 -14.2117 -14.2071 -14.2069 -14.1994 -14.1886
    -9.8617  -9.7841  -9.7437  -9.7303  -9.6692  -9.6429  -9.6258  -9.6103
    -9.5280  -9.4746  -9.4211  -9.3959  -9.3697  -9.3353  -9.3143  -9.2707
    -9.2485  -9.2224  -9.2122  -9.1880  -9.1620  -9.1241  -9.1081  -9.0882
    -9.0610  -9.0390  -9.0257  -9.0119  -8.9867  -8.9611  -8.9459  -8.9266
    -8.8933  -7.7437  -7.6961  -7.6839  -7.6673  -7.6619  -7.6388  -7.6144
    -7.2323  -7.0639  -7.0531  -7.0512  -7.0451  -7.0413  -6.9919  -6.9563
    -5.7730  -5.5925  -5.3980  -5.3747  -5.3547  -5.3439  -5.3309  -5.3248
    -5.3242  -5.3066  -5.2851  -5.2614  -5.1771  -5.1348  -4.9170  -4.7459
    -4.4408  -3.8681  -3.8423  -3.8272  -3.8183  -3.8159  -3.7798  -3.7750
    -3.5149  -3.3006  -3.2959  -3.2800  -3.2755  -3.2667  -3.2473  -3.2194
    -0.8288  -0.8208  -0.7930  -0.7450  -0.7140  -0.6812  -0.6347  -0.6048
    -0.4986  -0.4548  -0.3297  -0.2624  -0.1974  -0.1458  -0.1223  -0.1146
    -0.0843  -0.0508  -0.0343  -0.0105   0.1108   0.2250   0.3175   0.3841
     0.4301   0.4342   0.4707   0.4927   0.5125   0.5313   0.5586   0.6061
     0.6535   0.6898   0.7925   0.8105   0.8385   0.8581   0.8927   0.9320
     0.9438   0.9791   0.9925   1.0036   1.0274   1.0370   1.0660   1.0854
     1.1124   1.1349   1.1385   1.1791   1.1871   1.2054   1.2225   1.2412
     1.2436   1.2795   1.2872   1.3104   1.3345   1.3486   1.3695   1.3927
     1.4145   1.4304   1.4466   1.4706   1.4852   1.5060   1.5390   1.5660
     1.6017   1.6138   1.6206   1.6468   1.6725   1.7138   1.8022   1.8969

          k = 0.3705 0.1219 0.3708 (310912 PWs)   bands (ev):

   -20.6377 -17.9178 -17.8834 -17.8757 -17.8723 -17.8618 -17.8233 -17.8201
   -16.8202 -15.6774 -15.6602 -15.6498 -15.6430 -15.6372 -15.5875 -15.5742
   -14.3326 -14.3291 -14.3218 -14.3196 -14.3195 -14.3052 -14.2948 -14.2930
   -14.2911 -14.2908 -14.2905 -14.2889 -14.2822 -14.2811 -14.2810 -14.2776
   -14.2761 -14.2731 -14.2692 -14.2640 -14.2632 -14.2567 -14.2520 -14.2477
   -14.2472 -14.2471 -14.2437 -14.2409 -14.2375 -14.2347 -14.2318 -14.2315
   -14.2300 -14.2271 -14.2127 -14.2117 -14.2071 -14.2069 -14.1994 -14.1886
    -9.8598  -9.7690  -9.7338  -9.7175  -9.6772  -9.6648  -9.6436  -9.6185
    -9.5313  -9.4491  -9.4317  -9.3965  -9.3763  -9.3369  -9.3188  -9.2911
    -9.2641  -9.2278  -9.2071  -9.1655  -9.1331  -9.1193  -9.0897  -9.0807
    -9.0574  -9.0482  -9.0277  -9.0030  -8.9842  -8.9696  -8.9573  -8.9346
    -8.8966  -7.7434  -7.6939  -7.6847  -7.6697  -7.6604  -7.6389  -7.6157
    -7.2326  -7.0637  -7.0533  -7.0510  -7.0449  -7.0415  -6.9918  -6.9562
    -5.6621  -5.5033  -5.4775  -5.3917  -5.3523  -5.3462  -5.3383  -5.3280
    -5.3238  -5.3013  -5.2847  -5.2574  -5.2090  -5.0593  -5.0335  -4.8751
    -4.4417  -3.8654  -3.8421  -3.8303  -3.8182  -3.8146  -3.7806  -3.7753
    -3.5147  -3.3004  -3.2958  -3.2796  -3.2758  -3.2667  -3.2473  -3.2192
    -0.8026  -0.7532  -0.7034  -0.6578  -0.5740  -0.5020  -0.4294  -0.4212
    -0.3637  -0.3259  -0.2668  -0.2396  -0.1803  -0.1429  -0.1215  -0.0977
    -0.0830  -0.0622  -0.0329  -0.0163   0.0884   0.1844   0.2182   0.2486
     0.2928   0.3132   0.3495   0.4068   0.4460   0.4611   0.5047   0.5196
     0.6371   0.7094   0.7356   0.7532   0.7951   0.8112   0.8325   0.8620
     0.9100   0.9259   0.9455   0.9617   0.9824   1.0131   1.0403   1.0623
     1.0896   1.1084   1.1514   1.1608   1.1890   1.2073   1.2390   1.2623
     1.2738   1.2972   1.3087   1.3267   1.3329   1.3473   1.3539   1.3846
     1.3955   1.4152   1.4351   1.4660   1.4773   1.4990   1.5201   1.5374
     1.5557   1.5724   1.6055   1.6329   1.6514   1.7007   1.7128   1.7665

          k = 0.3705 0.3658 0.1236 (310890 PWs)   bands (ev):

   -20.6377 -17.9178 -17.8834 -17.8757 -17.8723 -17.8618 -17.8233 -17.8201
   -16.8202 -15.6774 -15.6604 -15.6498 -15.6428 -15.6372 -15.5875 -15.5742
   -14.3327 -14.3292 -14.3218 -14.3195 -14.3193 -14.3053 -14.2948 -14.2930
   -14.2911 -14.2907 -14.2903 -14.2889 -14.2822 -14.2811 -14.2811 -14.2777
   -14.2761 -14.2731 -14.2697 -14.2639 -14.2636 -14.2567 -14.2520 -14.2477
   -14.2471 -14.2454 -14.2437 -14.2414 -14.2375 -14.2347 -14.2318 -14.2315
   -14.2300 -14.2276 -14.2127 -14.2117 -14.2071 -14.2069 -14.1994 -14.1886
    -9.8637  -9.7773  -9.7434  -9.7312  -9.6697  -9.6440  -9.6237  -9.6108
    -9.5069  -9.4688  -9.4324  -9.4139  -9.3657  -9.3524  -9.3343  -9.2828
    -9.2533  -9.2253  -9.2073  -9.1711  -9.1582  -9.1199  -9.1013  -9.0811
    -9.0549  -9.0419  -9.0195  -8.9926  -8.9775  -8.9587  -8.9543  -8.9357
    -8.9096  -7.7426  -7.6946  -7.6816  -7.6716  -7.6619  -7.6383  -7.6147
    -7.2321  -7.0636  -7.0513  -7.0509  -7.0454  -7.0435  -6.9918  -6.9563
    -5.6620  -5.4927  -5.4676  -5.3968  -5.3599  -5.3446  -5.3326  -5.3295
    -5.3242  -5.2945  -5.2854  -5.2424  -5.2248  -5.0667  -5.0450  -4.8836
    -4.4415  -3.8651  -3.8426  -3.8270  -3.8199  -3.8162  -3.7793  -3.7752
    -3.5149  -3.3012  -3.2950  -3.2800  -3.2743  -3.2685  -3.2471  -3.2197
    -0.8171  -0.7750  -0.7149  -0.6363  -0.5586  -0.5084  -0.4499  -0.3836
    -0.3498  -0.2956  -0.2410  -0.2054  -0.1742  -0.1247  -0.1157  -0.1010
    -0.0805  -0.0543  -0.0457  -0.0155   0.0479   0.1749   0.2209   0.2368
     0.3205   0.3429   0.4124   0.4355   0.4623   0.4751   0.5180   0.5456
     0.5853   0.6620   0.6862   0.7105   0.7706   0.7991   0.8412   0.8648
     0.9030   0.9237   0.9525   0.9748   1.0036   1.0279   1.0604   1.0646
     1.0851   1.1078   1.1234   1.1533   1.1619   1.2001   1.2264   1.2402
     1.2745   1.2808   1.2954   1.3083   1.3256   1.3461   1.3741   1.3862
     1.4114   1.4249   1.4393   1.4738   1.4802   1.5026   1.5236   1.5440
     1.5549   1.5769   1.6016   1.6146   1.6274   1.6419   1.6714   1.7095

          k = 0.3705 0.3658 0.3708 (310927 PWs)   bands (ev):

   -20.6377 -17.9178 -17.8834 -17.8757 -17.8723 -17.8618 -17.8233 -17.8201
   -16.8202 -15.6774 -15.6602 -15.6498 -15.6430 -15.6372 -15.5875 -15.5742
   -14.3326 -14.3291 -14.3215 -14.3193 -14.3192 -14.3050 -14.2948 -14.2930
   -14.2911 -14.2911 -14.2905 -14.2889 -14.2822 -14.2814 -14.2811 -14.2778
   -14.2761 -14.2731 -14.2694 -14.2640 -14.2633 -14.2567 -14.2520 -14.2477
   -14.2471 -14.2458 -14.2440 -14.2415 -14.2375 -14.2347 -14.2318 -14.2315
   -14.2300 -14.2276 -14.2127 -14.2117 -14.2071 -14.2069 -14.1994 -14.1886
    -9.8610  -9.7644  -9.7349  -9.7162  -9.6789  -9.6644  -9.6420  -9.6176
    -9.5111  -9.4445  -9.4279  -9.4120  -9.3808  -9.3637  -9.3436  -9.3029
    -9.2619  -9.2210  -9.1897  -9.1603  -9.1474  -9.1131  -9.0842  -9.0671
    -9.0508  -9.0444  -9.0207  -8.9926  -8.9812  -8.9656  -8.9619  -8.9432
    -8.9114  -7.7423  -7.6908  -7.6841  -7.6738  -7.6603  -7.6384  -7.6160
    -7.2323  -7.0637  -7.0513  -7.0508  -7.0455  -7.0433  -6.9918  -6.9563
    -5.5555  -5.4196  -5.4006  -5.3879  -5.3562  -5.3425  -5.3331  -5.3264
    -5.3214  -5.3118  -5.2861  -5.2648  -5.2063  -5.1702  -5.1585  -5.0098
    -4.4419  -3.8631  -3.8405  -3.8305  -3.8205  -3.8147  -3.7803  -3.7752
    -3.5148  -3.3012  -3.2951  -3.2799  -3.2745  -3.2684  -3.2471  -3.2196
    -0.5917  -0.5562  -0.5046  -0.4481  -0.4236  -0.4030  -0.3495  -0.3337
    -0.3025  -0.2684  -0.2373  -0.2142  -0.1609  -0.1322  -0.1186  -0.0956
    -0.0777  -0.0684  -0.0395  -0.0147   0.0464   0.1591   0.1707   0.1807
     0.2364   0.2594   0.2750   0.3036   0.3400   0.3710   0.4161   0.4771
     0.6256   0.6727   0.7200   0.7472   0.7752   0.7937   0.8154   0.8300
     0.8572   0.8702   0.9033   0.9110   0.9484   0.9602   0.9938   1.0018
     1.0418   1.0484   1.0801   1.0939   1.1034   1.1345   1.1527   1.1694
     1.2556   1.2989   1.3159   1.3304   1.3489   1.3537   1.3673   1.3924
     1.4154   1.4230   1.4357   1.4596   1.4683   1.4957   1.5114   1.5236
     1.5381   1.5496   1.5763   1.5942   1.6038   1.6161   1.6514   1.6671

          k =-0.1235-0.1219 0.1236 (310882 PWs)   bands (ev):

   -20.6377 -17.9178 -17.8834 -17.8758 -17.8723 -17.8618 -17.8233 -17.8201
   -16.8202 -15.6774 -15.6604 -15.6498 -15.6428 -15.6372 -15.5875 -15.5741
   -14.3352 -14.3269 -14.3222 -14.3198 -14.3194 -14.3056 -14.2948 -14.2930
   -14.2911 -14.2906 -14.2903 -14.2889 -14.2822 -14.2811 -14.2808 -14.2783
   -14.2761 -14.2731 -14.2694 -14.2644 -14.2628 -14.2567 -14.2520 -14.2477
   -14.2471 -14.2468 -14.2432 -14.2406 -14.2375 -14.2347 -14.2318 -14.2315
   -14.2301 -14.2266 -14.2127 -14.2117 -14.2071 -14.2069 -14.1994 -14.1886
    -9.8674  -9.8102  -9.7409  -9.7046  -9.6624  -9.6451  -9.6199  -9.6092
    -9.5214  -9.4720  -9.4316  -9.3910  -9.3774  -9.3311  -9.2993  -9.2782
    -9.2561  -9.2278  -9.1969  -9.1845  -9.1558  -9.1288  -9.1059  -9.0805
    -9.0665  -9.0592  -9.0379  -9.0194  -9.0014  -8.9789  -8.9377  -8.9126
    -8.8703  -7.7434  -7.6960  -7.6843  -7.6678  -7.6604  -7.6383  -7.6141
    -7.2316  -7.0638  -7.0534  -7.0518  -7.0451  -7.0413  -6.9920  -6.9562
    -5.8907  -5.4858  -5.4464  -5.4258  -5.3997  -5.3496  -5.3446  -5.3319
    -5.3259  -5.3153  -5.2862  -5.2618  -5.0538  -5.0118  -5.0024  -4.6139
    -4.4377  -3.8683  -3.8424  -3.8277  -3.8200  -3.8135  -3.7796  -3.7744
    -3.5149  -3.3023  -3.2974  -3.2788  -3.2765  -3.2678  -3.2448  -3.2172
    -0.8988  -0.8620  -0.8172  -0.7787  -0.7304  -0.7239  -0.7000  -0.6745
    -0.6388  -0.5941  -0.5508  -0.5156  -0.4644  -0.1613  -0.1348  -0.1131
    -0.1035  -0.0663  -0.0385  -0.0042   0.3508   0.4127   0.4370   0.4648
     0.4737   0.5005   0.5243   0.5495   0.5682   0.6063   0.6523   0.7374
     0.7543   0.7963   0.8080   0.8502   0.8726   0.9086   0.9225   0.9488
     0.9728   0.9937   1.0086   1.0246   1.0389   1.0585   1.0800   1.0934
     1.1105   1.1143   1.1506   1.1567   1.1784   1.1891   1.2120   1.2284
     1.2463   1.2678   1.2797   1.2996   1.3132   1.3291   1.3593   1.3742
     1.4078   1.4241   1.4353   1.4621   1.4827   1.5028   1.5437   1.6091
     1.6414   1.6714   1.6903   1.7287   1.7860   1.8103   1.8437   2.0861

          k =-0.1235 0.1219-0.1236 (310882 PWs)   bands (ev):

   -20.6377 -17.9178 -17.8834 -17.8758 -17.8723 -17.8618 -17.8233 -17.8201
   -16.8202 -15.6774 -15.6604 -15.6498 -15.6428 -15.6372 -15.5875 -15.5741
   -14.3352 -14.3269 -14.3222 -14.3198 -14.3194 -14.3056 -14.2948 -14.2930
   -14.2911 -14.2906 -14.2903 -14.2889 -14.2822 -14.2811 -14.2808 -14.2783
   -14.2761 -14.2731 -14.2694 -14.2644 -14.2628 -14.2567 -14.2520 -14.2477
   -14.2471 -14.2468 -14.2432 -14.2406 -14.2375 -14.2347 -14.2318 -14.2315
   -14.2301 -14.2266 -14.2127 -14.2117 -14.2071 -14.2069 -14.1994 -14.1886
    -9.8669  -9.8115  -9.7416  -9.7041  -9.6650  -9.6443  -9.6159  -9.6059
    -9.5276  -9.4666  -9.4371  -9.3952  -9.3724  -9.3310  -9.2950  -9.2835
    -9.2507  -9.2333  -9.1944  -9.1769  -9.1719  -9.1226  -9.1027  -9.0793
    -9.0682  -9.0619  -9.0335  -9.0261  -8.9963  -8.9797  -8.9386  -8.9118
    -8.8708  -7.7432  -7.6961  -7.6842  -7.6673  -7.6610  -7.6385  -7.6142
    -7.2317  -7.0637  -7.0536  -7.0515  -7.0451  -7.0412  -6.9920  -6.9562
    -5.8907  -5.4872  -5.4482  -5.4250  -5.3998  -5.3478  -5.3442  -5.3316
    -5.3262  -5.3150  -5.2862  -5.2603  -5.0546  -5.0113  -5.0032  -4.6146
    -4.4376  -3.8682  -3.8424  -3.8276  -3.8204  -3.8134  -3.7796  -3.7744
    -3.5148  -3.3025  -3.2970  -3.2792  -3.2765  -3.2676  -3.2447  -3.2172
    -0.8809  -0.8557  -0.8156  -0.7684  -0.7454  -0.7279  -0.7034  -0.6845
    -0.6473  -0.5937  -0.5527  -0.5180  -0.4636  -0.1691  -0.1327  -0.1139
    -0.1072  -0.0640  -0.0322  -0.0061   0.3493   0.4150   0.4346   0.4673
     0.4747   0.5087   0.5287   0.5490   0.5724   0.6147   0.6618   0.7167
     0.7387   0.7928   0.8365   0.8552   0.8854   0.9180   0.9354   0.9467
     0.9714   0.9838   0.9922   1.0194   1.0363   1.0432   1.0728   1.0914
     1.0956   1.1309   1.1482   1.1693   1.1815   1.1952   1.2205   1.2305
     1.2459   1.2522   1.2736   1.2907   1.3067   1.3319   1.3508   1.3905
     1.4075   1.4200   1.4423   1.4629   1.4875   1.5022   1.5436   1.6081
     1.6493   1.6808   1.6894   1.7459   1.7676   1.8030   1.8396   2.0697

          k = 0.1235-0.1219-0.1236 (310882 PWs)   bands (ev):

   -20.6377 -17.9178 -17.8834 -17.8758 -17.8723 -17.8618 -17.8233 -17.8201
   -16.8202 -15.6774 -15.6604 -15.6498 -15.6428 -15.6372 -15.5875 -15.5741
   -14.3352 -14.3269 -14.3222 -14.3198 -14.3194 -14.3056 -14.2948 -14.2930
   -14.2911 -14.2906 -14.2902 -14.2889 -14.2822 -14.2811 -14.2808 -14.2783
   -14.2761 -14.2731 -14.2694 -14.2644 -14.2628 -14.2567 -14.2520 -14.2477
   -14.2471 -14.2468 -14.2432 -14.2406 -14.2375 -14.2347 -14.2318 -14.2315
   -14.2301 -14.2266 -14.2127 -14.2117 -14.2071 -14.2069 -14.1994 -14.1886
    -9.8664  -9.8117  -9.7419  -9.7038  -9.6630  -9.6448  -9.6206  -9.6069
    -9.5239  -9.4661  -9.4317  -9.4022  -9.3713  -9.3333  -9.2924  -9.2782
    -9.2564  -9.2217  -9.2026  -9.1865  -9.1690  -9.1191  -9.1044  -9.0790
    -9.0684  -9.0609  -9.0343  -9.0239  -8.9974  -8.9794  -8.9384  -8.9117
    -8.8709  -7.7434  -7.6961  -7.6841  -7.6677  -7.6606  -7.6383  -7.6142
    -7.2317  -7.0636  -7.0535  -7.0517  -7.0452  -7.0412  -6.9920  -6.9562
    -5.8909  -5.4858  -5.4475  -5.4293  -5.3947  -5.3484  -5.3453  -5.3334
    -5.3234  -5.3148  -5.2879  -5.2616  -5.0536  -5.0117  -5.0031  -4.6145
    -4.4376  -3.8682  -3.8428  -3.8277  -3.8198  -3.8135  -3.7797  -3.7744
    -3.5148  -3.3026  -3.2973  -3.2790  -3.2765  -3.2675  -3.2446  -3.2171
    -0.8897  -0.8449  -0.8223  -0.7711  -0.7385  -0.7328  -0.7018  -0.6798
    -0.6462  -0.5938  -0.5546  -0.5157  -0.4638  -0.1693  -0.1313  -0.1199
    -0.1065  -0.0621  -0.0325  -0.0059   0.3497   0.4142   0.4385   0.4629
     0.4760   0.5056   0.5223   0.5480   0.5708   0.6206   0.6720   0.7298
     0.7546   0.7810   0.8239   0.8489   0.8896   0.9064   0.9340   0.9439
     0.9588   0.9797   0.9980   1.0068   1.0390   1.0549   1.0812   1.0914
     1.1120   1.1312   1.1531   1.1651   1.1802   1.1890   1.2034   1.2359
     1.2490   1.2645   1.2776   1.2934   1.3024   1.3257   1.3608   1.3834
     1.4117   1.4289   1.4364   1.4526   1.4888   1.5084   1.5411   1.6027
     1.6516   1.6769   1.6898   1.7445   1.7659   1.8059   1.8378   2.0735

          k =-0.1235-0.1219 0.3708 (310895 PWs)   bands (ev):

   -20.6377 -17.9178 -17.8834 -17.8758 -17.8723 -17.8618 -17.8233 -17.8201
   -16.8202 -15.6774 -15.6602 -15.6498 -15.6430 -15.6372 -15.5875 -15.5741
   -14.3351 -14.3268 -14.3218 -14.3196 -14.3193 -14.3054 -14.2948 -14.2930
   -14.2911 -14.2908 -14.2905 -14.2889 -14.2822 -14.2811 -14.2810 -14.2783
   -14.2761 -14.2731 -14.2691 -14.2645 -14.2626 -14.2567 -14.2520 -14.2477
   -14.2471 -14.2471 -14.2436 -14.2407 -14.2375 -14.2347 -14.2318 -14.2315
   -14.2300 -14.2266 -14.2127 -14.2117 -14.2071 -14.2069 -14.1994 -14.1886
    -9.8648  -9.7914  -9.7373  -9.6914  -9.6750  -9.6620  -9.6394  -9.6236
    -9.5203  -9.4467  -9.4327  -9.4007  -9.3656  -9.3282  -9.3146  -9.3074
    -9.2639  -9.2289  -9.2005  -9.1590  -9.1331  -9.1198  -9.0889  -9.0811
    -9.0691  -9.0473  -9.0394  -9.0190  -9.0018  -8.9843  -8.9548  -8.9183
    -8.8720  -7.7435  -7.6938  -7.6854  -7.6708  -7.6581  -7.6379  -7.6151
    -7.2318  -7.0635  -7.0535  -7.0518  -7.0451  -7.0414  -6.9920  -6.9561
    -5.7760  -5.6017  -5.4069  -5.3714  -5.3545  -5.3428  -5.3365  -5.3291
    -5.3198  -5.3061  -5.2730  -5.2597  -5.1681  -5.1393  -4.9174  -4.7420
    -4.4403  -3.8656  -3.8419  -3.8316  -3.8202  -3.8113  -3.7803  -3.7750
    -3.5148  -3.3017  -3.2977  -3.2790  -3.2763  -3.2678  -3.2451  -3.2171
    -0.8746  -0.8227  -0.7392  -0.7351  -0.6749  -0.6551  -0.6175  -0.5730
    -0.5459  -0.4240  -0.3513  -0.3181  -0.2151  -0.1412  -0.1325  -0.1054
    -0.0910  -0.0642  -0.0523  -0.0008   0.1363   0.2199   0.2771   0.3590
     0.4069   0.4244   0.4557   0.4753   0.5132   0.5412   0.5517   0.5872
     0.6104   0.6763   0.8041   0.8218   0.8677   0.8904   0.9240   0.9345
     0.9532   0.9680   0.9799   1.0029   1.0439   1.0541   1.0803   1.0850
     1.1187   1.1284   1.1516   1.1703   1.1947   1.2012   1.2312   1.2471
     1.2598   1.2694   1.2830   1.3130   1.3194   1.3354   1.3603   1.3746
     1.3946   1.4138   1.4303   1.4546   1.4810   1.5081   1.5322   1.5428
     1.6118   1.6301   1.6427   1.6604   1.7253   1.7460   1.8096   1.9428

          k =-0.1235 0.1219-0.3708 (310895 PWs)   bands (ev):

   -20.6377 -17.9178 -17.8834 -17.8758 -17.8723 -17.8618 -17.8233 -17.8201
   -16.8202 -15.6774 -15.6602 -15.6498 -15.6430 -15.6372 -15.5875 -15.5741
   -14.3351 -14.3268 -14.3218 -14.3196 -14.3193 -14.3054 -14.2948 -14.2930
   -14.2911 -14.2908 -14.2905 -14.2889 -14.2822 -14.2811 -14.2810 -14.2783
   -14.2761 -14.2731 -14.2691 -14.2645 -14.2626 -14.2567 -14.2520 -14.2477
   -14.2471 -14.2471 -14.2436 -14.2407 -14.2375 -14.2347 -14.2318 -14.2315
   -14.2300 -14.2266 -14.2127 -14.2117 -14.2071 -14.2069 -14.1994 -14.1886
    -9.8647  -9.7918  -9.7374  -9.6926  -9.6771  -9.6622  -9.6386  -9.6182
    -9.5216  -9.4504  -9.4335  -9.3910  -9.3628  -9.3514  -9.3122  -9.2911
    -9.2633  -9.2315  -9.2030  -9.1627  -9.1356  -9.1148  -9.0861  -9.0835
    -9.0715  -9.0455  -9.0387  -9.0162  -9.0037  -8.9824  -8.9574  -8.9172
    -8.8724  -7.7433  -7.6939  -7.6852  -7.6702  -7.6587  -7.6381  -7.6153
    -7.2319  -7.0635  -7.0537  -7.0516  -7.0450  -7.0414  -6.9920  -6.9562
    -5.7758  -5.6024  -5.4078  -5.3753  -5.3555  -5.3400  -5.3349  -5.3273
    -5.3171  -5.3064  -5.2766  -5.2567  -5.1708  -5.1370  -4.9184  -4.7426
    -4.4403  -3.8654  -3.8419  -3.8315  -3.8207  -3.8113  -3.7802  -3.7749
    -3.5147  -3.3019  -3.2973  -3.2794  -3.2762  -3.2676  -3.2450  -3.2172
    -0.8564  -0.8090  -0.7559  -0.7348  -0.6787  -0.6511  -0.6313  -0.5756
    -0.5506  -0.4243  -0.3625  -0.3088  -0.2240  -0.1468  -0.1323  -0.1051
    -0.0870  -0.0612  -0.0486  -0.0046   0.1385   0.2275   0.2760   0.3620
     0.4007   0.4232   0.4518   0.4900   0.5177   0.5395   0.5502   0.5821
     0.6285   0.6717   0.8082   0.8271   0.8669   0.8965   0.9174   0.9320
     0.9531   0.9764   1.0014   1.0107   1.0265   1.0386   1.0748   1.0840
     1.1037   1.1216   1.1525   1.1726   1.1978   1.2122   1.2228   1.2413
     1.2583   1.2722   1.2894   1.3003   1.3139   1.3378   1.3540   1.3770
     1.3979   1.4145   1.4348   1.4503   1.4886   1.5047   1.5347   1.5537
     1.6205   1.6374   1.6462   1.6696   1.7291   1.7484   1.7857   1.9173

          k = 0.1235-0.1219-0.3708 (310895 PWs)   bands (ev):

   -20.6377 -17.9178 -17.8834 -17.8758 -17.8723 -17.8618 -17.8233 -17.8201
   -16.8202 -15.6774 -15.6602 -15.6498 -15.6430 -15.6372 -15.5875 -15.5741
   -14.3351 -14.3268 -14.3218 -14.3196 -14.3193 -14.3054 -14.2948 -14.2930
   -14.2911 -14.2908 -14.2905 -14.2889 -14.2822 -14.2811 -14.2810 -14.2783
   -14.2761 -14.2731 -14.2691 -14.2645 -14.2626 -14.2567 -14.2520 -14.2477
   -14.2471 -14.2471 -14.2436 -14.2407 -14.2375 -14.2347 -14.2318 -14.2315
   -14.2300 -14.2266 -14.2127 -14.2117 -14.2071 -14.2069 -14.1994 -14.1886
    -9.8642  -9.7918  -9.7378  -9.6917  -9.6776  -9.6605  -9.6382  -9.6244
    -9.5195  -9.4421  -9.4293  -9.4038  -9.3735  -9.3399  -9.3115  -9.2852
    -9.2642  -9.2340  -9.2042  -9.1664  -9.1342  -9.1177  -9.0867  -9.0804
    -9.0681  -9.0459  -9.0400  -9.0199  -9.0012  -8.9812  -8.9576  -8.9172
    -8.8725  -7.7436  -7.6940  -7.6851  -7.6704  -7.6585  -7.6379  -7.6152
    -7.2319  -7.0634  -7.0537  -7.0517  -7.0452  -7.0414  -6.9920  -6.9562
    -5.7765  -5.6013  -5.4084  -5.3685  -5.3557  -5.3417  -5.3380  -5.3322
    -5.3140  -5.3010  -5.2814  -5.2606  -5.1665  -5.1378  -4.9187  -4.7422
    -4.4402  -3.8654  -3.8424  -3.8313  -3.8202  -3.8113  -3.7803  -3.7749
    -3.5148  -3.3020  -3.2976  -3.2792  -3.2763  -3.2675  -3.2450  -3.2170
    -0.8570  -0.8097  -0.7516  -0.7398  -0.6816  -0.6535  -0.6306  -0.5741
    -0.5491  -0.4225  -0.3524  -0.3139  -0.2104  -0.1540  -0.1319  -0.1159
    -0.0922  -0.0589  -0.0449  -0.0048   0.1387   0.2150   0.2855   0.3617
     0.4109   0.4234   0.4560   0.4822   0.5132   0.5406   0.5556   0.5815
     0.6213   0.6768   0.7946   0.8293   0.8669   0.9087   0.9193   0.9273
     0.9477   0.9759   0.9889   1.0003   1.0255   1.0635   1.0838   1.0891
     1.1022   1.1224   1.1470   1.1719   1.1979   1.2046   1.2246   1.2320
     1.2608   1.2773   1.2981   1.3077   1.3130   1.3332   1.3552   1.3751
     1.3984   1.4152   1.4314   1.4639   1.4807   1.5065   1.5273   1.5528
     1.6156   1.6351   1.6492   1.6667   1.7304   1.7474   1.7868   1.9201

          k =-0.1235-0.3658 0.1236 (310795 PWs)   bands (ev):

   -20.6377 -17.9178 -17.8834 -17.8757 -17.8723 -17.8618 -17.8233 -17.8201
   -16.8202 -15.6774 -15.6604 -15.6498 -15.6428 -15.6372 -15.5875 -15.5741
   -14.3352 -14.3269 -14.3218 -14.3195 -14.3191 -14.3055 -14.2948 -14.2930
   -14.2911 -14.2907 -14.2903 -14.2889 -14.2822 -14.2811 -14.2811 -14.2784
   -14.2761 -14.2731 -14.2697 -14.2644 -14.2629 -14.2567 -14.2520 -14.2477
   -14.2471 -14.2453 -14.2436 -14.2412 -14.2375 -14.2347 -14.2318 -14.2315
   -14.2301 -14.2271 -14.2127 -14.2117 -14.2071 -14.2069 -14.1994 -14.1886
    -9.8706  -9.8010  -9.7420  -9.7069  -9.6636  -9.6460  -9.6185  -9.6072
    -9.5024  -9.4639  -9.4336  -9.4073  -9.3861  -9.3449  -9.3234  -9.2896
    -9.2701  -9.2283  -9.1869  -9.1705  -9.1577  -9.1148  -9.0958  -9.0666
    -9.0583  -9.0506  -9.0446  -9.0158  -8.9914  -8.9681  -8.9504  -8.9180
    -8.8885  -7.7423  -7.6945  -7.6820  -7.6715  -7.6610  -7.6378  -7.6147
    -7.2314  -7.0635  -7.0519  -7.0510  -7.0458  -7.0432  -6.9919  -6.9563
    -5.7760  -5.5814  -5.4068  -5.3708  -5.3627  -5.3497  -5.3334  -5.3273
    -5.3201  -5.3140  -5.2755  -5.2590  -5.1627  -5.1379  -4.9240  -4.7519
    -4.4400  -3.8650  -3.8427  -3.8279  -3.8217  -3.8137  -3.7790  -3.7751
    -3.5148  -3.3022  -3.2972  -3.2772  -3.2761  -3.2701  -3.2449  -3.2174
    -0.8906  -0.8425  -0.7653  -0.7250  -0.7018  -0.6644  -0.5975  -0.5573
    -0.4584  -0.4029  -0.3392  -0.3045  -0.2034  -0.1395  -0.1255  -0.1135
    -0.0873  -0.0778  -0.0369  -0.0095   0.1837   0.2466   0.3070   0.3568
     0.3890   0.4501   0.4697   0.4905   0.4954   0.5283   0.5618   0.6091
     0.6529   0.6741   0.7269   0.7614   0.8124   0.8449   0.8877   0.9201
     0.9484   0.9839   1.0017   1.0289   1.0323   1.0530   1.0619   1.0880
     1.1069   1.1258   1.1632   1.1678   1.1974   1.2176   1.2297   1.2413
     1.2663   1.2813   1.2864   1.2974   1.3210   1.3373   1.3678   1.3865
     1.4007   1.4192   1.4415   1.4480   1.4798   1.4945   1.5143   1.5403
     1.5784   1.5865   1.6242   1.6678   1.6936   1.7061   1.8314   1.9075

          k =-0.1235 0.3658-0.1236 (310795 PWs)   bands (ev):

   -20.6377 -17.9178 -17.8834 -17.8757 -17.8723 -17.8618 -17.8233 -17.8201
   -16.8202 -15.6774 -15.6604 -15.6498 -15.6428 -15.6372 -15.5875 -15.5741
   -14.3352 -14.3269 -14.3218 -14.3195 -14.3191 -14.3055 -14.2948 -14.2930
   -14.2911 -14.2907 -14.2903 -14.2889 -14.2822 -14.2811 -14.2811 -14.2784
   -14.2761 -14.2731 -14.2697 -14.2644 -14.2629 -14.2567 -14.2520 -14.2477
   -14.2471 -14.2453 -14.2436 -14.2412 -14.2375 -14.2347 -14.2318 -14.2315
   -14.2301 -14.2271 -14.2127 -14.2117 -14.2071 -14.2069 -14.1994 -14.1886
    -9.8704  -9.8016  -9.7432  -9.7060  -9.6660  -9.6452  -9.6142  -9.6069
    -9.5043  -9.4596  -9.4358  -9.4046  -9.3953  -9.3412  -9.3219  -9.2950
    -9.2667  -9.2274  -9.1867  -9.1704  -9.1613  -9.1112  -9.0924  -9.0695
    -9.0611  -9.0524  -9.0406  -9.0178  -8.9898  -8.9672  -8.9514  -8.9172
    -8.8891  -7.7421  -7.6947  -7.6817  -7.6713  -7.6613  -7.6380  -7.6148
    -7.2315  -7.0635  -7.0521  -7.0507  -7.0459  -7.0431  -6.9919  -6.9563
    -5.7760  -5.5816  -5.4070  -5.3741  -5.3683  -5.3466  -5.3294  -5.3261
    -5.3235  -5.3112  -5.2734  -5.2553  -5.1637  -5.1405  -4.9234  -4.7533
    -4.4399  -3.8648  -3.8428  -3.8281  -3.8217  -3.8139  -3.7790  -3.7751
    -3.5147  -3.3023  -3.2968  -3.2773  -3.2766  -3.2697  -3.2448  -3.2175
    -0.8801  -0.8435  -0.7552  -0.7232  -0.7110  -0.6686  -0.5917  -0.5542
    -0.4576  -0.4123  -0.3507  -0.3147  -0.2116  -0.1469  -0.1246  -0.1203
    -0.0941  -0.0759  -0.0344  -0.0081   0.1958   0.2651   0.3177   0.3600
     0.4050   0.4469   0.4638   0.4920   0.5023   0.5211   0.5731   0.6115
     0.6284   0.6815   0.7248   0.7696   0.8146   0.8337   0.8944   0.9195
     0.9507   0.9790   0.9950   1.0038   1.0379   1.0568   1.0750   1.0871
     1.1131   1.1266   1.1625   1.1791   1.2042   1.2106   1.2231   1.2421
     1.2550   1.2708   1.2796   1.3172   1.3236   1.3296   1.3668   1.3915
     1.3984   1.4174   1.4298   1.4547   1.4781   1.5053   1.5135   1.5514
     1.5561   1.5968   1.6251   1.6709   1.6892   1.7096   1.8363   1.8895

          k = 0.1235-0.3658-0.1236 (310795 PWs)   bands (ev):

   -20.6377 -17.9178 -17.8834 -17.8757 -17.8723 -17.8618 -17.8233 -17.8201
   -16.8202 -15.6774 -15.6604 -15.6498 -15.6428 -15.6372 -15.5875 -15.5741
   -14.3352 -14.3269 -14.3218 -14.3195 -14.3191 -14.3055 -14.2948 -14.2930
   -14.2911 -14.2907 -14.2903 -14.2889 -14.2822 -14.2811 -14.2811 -14.2784
   -14.2761 -14.2731 -14.2697 -14.2644 -14.2629 -14.2567 -14.2520 -14.2477
   -14.2471 -14.2453 -14.2436 -14.2412 -14.2375 -14.2347 -14.2318 -14.2315
   -14.2301 -14.2271 -14.2127 -14.2117 -14.2071 -14.2069 -14.1994 -14.1886
    -9.8698  -9.8023  -9.7431  -9.7059  -9.6640  -9.6461  -9.6189  -9.6050
    -9.5046  -9.4593  -9.4354  -9.4061  -9.3911  -9.3454  -9.3185  -9.2920
    -9.2664  -9.2278  -9.1829  -9.1784  -9.1646  -9.1063  -9.0989  -9.0665
    -9.0591  -9.0516  -9.0408  -9.0176  -8.9921  -8.9644  -8.9520  -8.9172
    -8.8894  -7.7423  -7.6947  -7.6816  -7.6715  -7.6611  -7.6378  -7.6147
    -7.2315  -7.0633  -7.0520  -7.0509  -7.0459  -7.0431  -6.9919  -6.9563
    -5.7766  -5.5806  -5.4111  -5.3698  -5.3648  -5.3462  -5.3336  -5.3293
    -5.3180  -5.3067  -5.2790  -5.2592  -5.1633  -5.1384  -4.9241  -4.7526
    -4.4399  -3.8648  -3.8432  -3.8280  -3.8214  -3.8138  -3.7790  -3.7751
    -3.5148  -3.3025  -3.2971  -3.2772  -3.2766  -3.2696  -3.2448  -3.2173
    -0.8869  -0.8387  -0.7611  -0.7280  -0.6962  -0.6659  -0.5963  -0.5522
    -0.4577  -0.4137  -0.3480  -0.3127  -0.2123  -0.1523  -0.1328  -0.1208
    -0.0983  -0.0673  -0.0328  -0.0071   0.1963   0.2662   0.3209   0.3589
     0.4021   0.4572   0.4629   0.4914   0.4980   0.5241   0.5704   0.6120
     0.6426   0.6813   0.7127   0.7603   0.8178   0.8318   0.8895   0.9134
     0.9495   0.9885   1.0028   1.0134   1.0277   1.0416   1.0745   1.0983
     1.1191   1.1327   1.1524   1.1676   1.1944   1.2167   1.2248   1.2394
     1.2560   1.2871   1.2881   1.3008   1.3301   1.3326   1.3578   1.3938
     1.4068   1.4188   1.4300   1.4598   1.4805   1.4943   1.5285   1.5367
     1.5628   1.5914   1.6248   1.6708   1.6857   1.7056   1.8351   1.8948

          k =-0.1235-0.3658 0.3708 (310926 PWs)   bands (ev):

   -20.6377 -17.9178 -17.8834 -17.8757 -17.8724 -17.8618 -17.8233 -17.8201
   -16.8202 -15.6774 -15.6602 -15.6498 -15.6430 -15.6372 -15.5875 -15.5741
   -14.3351 -14.3268 -14.3215 -14.3193 -14.3190 -14.3053 -14.2948 -14.2930
   -14.2911 -14.2911 -14.2905 -14.2889 -14.2822 -14.2814 -14.2811 -14.2785
   -14.2761 -14.2731 -14.2694 -14.2645 -14.2626 -14.2567 -14.2520 -14.2477
   -14.2471 -14.2458 -14.2439 -14.2413 -14.2375 -14.2347 -14.2318 -14.2315
   -14.2301 -14.2271 -14.2127 -14.2117 -14.2071 -14.2069 -14.1994 -14.1886
    -9.8664  -9.7860  -9.7372  -9.6929  -9.6769  -9.6591  -9.6368  -9.6233
    -9.5027  -9.4478  -9.4306  -9.4067  -9.3867  -9.3431  -9.3307  -9.3035
    -9.2857  -9.2189  -9.1892  -9.1551  -9.1447  -9.1097  -9.0779  -9.0704
    -9.0566  -9.0522  -9.0355  -9.0132  -8.9965  -8.9768  -8.9538  -8.9261
    -8.8903  -7.7425  -7.6906  -7.6850  -7.6737  -7.6589  -7.6374  -7.6157
    -7.2316  -7.0635  -7.0519  -7.0510  -7.0458  -7.0432  -6.9919  -6.9562
    -5.6646  -5.5123  -5.4636  -5.4060  -5.3493  -5.3458  -5.3393  -5.3277
    -5.3182  -5.2867  -5.2664  -5.2623  -5.2259  -5.0716  -5.0325  -4.8798
    -4.4409  -3.8631  -3.8398  -3.8320  -3.8231  -3.8116  -3.7800  -3.7750
    -3.5148  -3.3019  -3.2973  -3.2775  -3.2761  -3.2700  -3.2452  -3.2175
    -0.8646  -0.7458  -0.6788  -0.6066  -0.5534  -0.4587  -0.4028  -0.3682
    -0.3425  -0.3223  -0.2833  -0.2464  -0.2180  -0.1335  -0.1231  -0.1027
    -0.0804  -0.0694  -0.0422   0.0008   0.1094   0.1642   0.2212   0.2388
     0.2935   0.3121   0.3427   0.3983   0.4281   0.4933   0.5226   0.5390
     0.5932   0.6312   0.7018   0.7383   0.7701   0.8021   0.8228   0.8528
     0.8753   0.8996   0.9414   0.9688   1.0014   1.0201   1.0481   1.0741
     1.1126   1.1328   1.1405   1.1762   1.1860   1.2088   1.2313   1.2543
     1.2711   1.2870   1.3062   1.3249   1.3388   1.3446   1.3648   1.3887
     1.3977   1.4232   1.4335   1.4543   1.4696   1.4884   1.4985   1.5371
     1.5507   1.5750   1.5955   1.6292   1.6449   1.6681   1.7145   1.7888

          k =-0.1235 0.3658-0.3708 (310926 PWs)   bands (ev):

   -20.6377 -17.9178 -17.8834 -17.8757 -17.8724 -17.8618 -17.8233 -17.8201
   -16.8202 -15.6774 -15.6602 -15.6498 -15.6430 -15.6372 -15.5875 -15.5741
   -14.3351 -14.3268 -14.3215 -14.3193 -14.3190 -14.3053 -14.2948 -14.2930
   -14.2911 -14.2911 -14.2905 -14.2889 -14.2822 -14.2814 -14.2811 -14.2785
   -14.2761 -14.2731 -14.2694 -14.2645 -14.2626 -14.2567 -14.2520 -14.2477
   -14.2471 -14.2458 -14.2439 -14.2413 -14.2375 -14.2347 -14.2318 -14.2315
   -14.2301 -14.2271 -14.2127 -14.2117 -14.2071 -14.2069 -14.1994 -14.1886
    -9.8665  -9.7854  -9.7380  -9.6938  -9.6776  -9.6614  -9.6373  -9.6177
    -9.5017  -9.4453  -9.4314  -9.4086  -9.3852  -9.3559  -9.3212  -9.3086
    -9.2806  -9.2187  -9.1878  -9.1591  -9.1443  -9.1118  -9.0765  -9.0695
    -9.0603  -9.0470  -9.0308  -9.0195  -8.9944  -8.9763  -8.9554  -8.9249
    -8.8908  -7.7423  -7.6909  -7.6847  -7.6732  -7.6594  -7.6376  -7.6159
    -7.2316  -7.0635  -7.0521  -7.0508  -7.0458  -7.0431  -6.9919  -6.9563
    -5.6643  -5.5135  -5.4637  -5.4057  -5.3504  -5.3469  -5.3373  -5.3281
    -5.3186  -5.2872  -5.2685  -5.2602  -5.2215  -5.0725  -5.0327  -4.8813
    -4.4408  -3.8629  -3.8399  -3.8317  -3.8235  -3.8117  -3.7799  -3.7751
    -3.5147  -3.3021  -3.2970  -3.2778  -3.2764  -3.2696  -3.2451  -3.2176
    -0.8579  -0.7346  -0.6777  -0.6005  -0.5595  -0.4632  -0.4115  -0.3773
    -0.3431  -0.3223  -0.2971  -0.2517  -0.2267  -0.1359  -0.1270  -0.0930
    -0.0779  -0.0717  -0.0433  -0.0072   0.1129   0.1695   0.2337   0.2607
     0.3006   0.3145   0.3441   0.3937   0.4270   0.4891   0.5127   0.5429
     0.6029   0.6370   0.7141   0.7366   0.7693   0.7936   0.8218   0.8647
     0.8743   0.8952   0.9428   0.9669   0.9934   1.0088   1.0489   1.0753
     1.0988   1.1269   1.1614   1.1656   1.2016   1.2106   1.2346   1.2425
     1.2609   1.2817   1.3077   1.3255   1.3369   1.3476   1.3641   1.3971
     1.4048   1.4132   1.4381   1.4567   1.4618   1.4948   1.5058   1.5329
     1.5519   1.5714   1.6005   1.6346   1.6499   1.6708   1.7092   1.7666

          k = 0.1235-0.3658-0.3708 (310926 PWs)   bands (ev):

   -20.6377 -17.9178 -17.8834 -17.8757 -17.8724 -17.8618 -17.8233 -17.8201
   -16.8202 -15.6774 -15.6602 -15.6498 -15.6430 -15.6372 -15.5875 -15.5741
   -14.3351 -14.3268 -14.3215 -14.3193 -14.3190 -14.3053 -14.2948 -14.2930
   -14.2911 -14.2911 -14.2905 -14.2889 -14.2822 -14.2814 -14.2811 -14.2785
   -14.2761 -14.2731 -14.2694 -14.2645 -14.2626 -14.2567 -14.2520 -14.2477
   -14.2471 -14.2458 -14.2439 -14.2413 -14.2375 -14.2347 -14.2318 -14.2315
   -14.2301 -14.2271 -14.2127 -14.2117 -14.2071 -14.2069 -14.1994 -14.1886
    -9.8659  -9.7863  -9.7377  -9.6932  -9.6790  -9.6582  -9.6349  -9.6246
    -9.5010  -9.4447  -9.4308  -9.4035  -9.3907  -9.3572  -9.3240  -9.2931
    -9.2853  -9.2252  -9.1851  -9.1626  -9.1460  -9.1095  -9.0799  -9.0661
    -9.0584  -9.0463  -9.0362  -9.0169  -8.9955  -8.9740  -8.9551  -8.9254
    -8.8910  -7.7425  -7.6910  -7.6846  -7.6733  -7.6593  -7.6374  -7.6159
    -7.2317  -7.0633  -7.0520  -7.0509  -7.0459  -7.0432  -6.9919  -6.9563
    -5.6662  -5.5076  -5.4690  -5.3940  -5.3602  -5.3474  -5.3405  -5.3237
    -5.3175  -5.2995  -5.2683  -5.2493  -5.2222  -5.0707  -5.0362  -4.8799
    -4.4408  -3.8629  -3.8406  -3.8314  -3.8232  -3.8116  -3.7800  -3.7750
    -3.5148  -3.3022  -3.2973  -3.2777  -3.2764  -3.2695  -3.2451  -3.2174
    -0.8584  -0.7376  -0.6794  -0.6021  -0.5542  -0.4589  -0.4135  -0.3691
    -0.3529  -0.3177  -0.2879  -0.2651  -0.2014  -0.1452  -0.1368  -0.1174
    -0.0840  -0.0646  -0.0419  -0.0068   0.1225   0.1823   0.2355   0.2701
     0.3036   0.3212   0.3304   0.3835   0.4275   0.4860   0.5221   0.5415
     0.5972   0.6395   0.6949   0.7308   0.7842   0.7931   0.8245   0.8394
     0.8866   0.9133   0.9286   0.9841   0.9882   1.0039   1.0525   1.0821
     1.0936   1.1296   1.1499   1.1762   1.1832   1.2111   1.2357   1.2474
     1.2678   1.2919   1.3020   1.3227   1.3370   1.3541   1.3728   1.3881
     1.3983   1.4118   1.4475   1.4534   1.4687   1.4944   1.5051   1.5411
     1.5489   1.5665   1.5939   1.6288   1.6469   1.6690   1.7095   1.7729

          k =-0.3705-0.1219 0.1236 (310926 PWs)   bands (ev):

   -20.6377 -17.9178 -17.8834 -17.8757 -17.8723 -17.8618 -17.8233 -17.8201
   -16.8202 -15.6774 -15.6604 -15.6498 -15.6428 -15.6372 -15.5875 -15.5742
   -14.3327 -14.3292 -14.3222 -14.3197 -14.3196 -14.3054 -14.2948 -14.2930
   -14.2911 -14.2906 -14.2902 -14.2889 -14.2822 -14.2811 -14.2807 -14.2776
   -14.2761 -14.2731 -14.2695 -14.2639 -14.2635 -14.2567 -14.2520 -14.2477
   -14.2471 -14.2468 -14.2433 -14.2409 -14.2375 -14.2347 -14.2318 -14.2315
   -14.2300 -14.2271 -14.2127 -14.2117 -14.2071 -14.2069 -14.1994 -14.1886
    -9.8621  -9.7820  -9.7442  -9.7302  -9.6664  -9.6445  -9.6317  -9.6114
    -9.5234  -9.4758  -9.4120  -9.4056  -9.3690  -9.3318  -9.3142  -9.2656
    -9.2493  -9.2316  -9.2110  -9.1890  -9.1603  -9.1238  -9.1126  -9.0829
    -9.0610  -9.0358  -9.0303  -9.0115  -8.9887  -8.9601  -8.9430  -8.9296
    -8.8919  -7.7438  -7.6960  -7.6840  -7.6680  -7.6611  -7.6385  -7.6144
    -7.2323  -7.0640  -7.0529  -7.0513  -7.0453  -7.0411  -6.9919  -6.9562
    -5.7732  -5.5919  -5.3972  -5.3757  -5.3538  -5.3447  -5.3297  -5.3273
    -5.3237  -5.3109  -5.2817  -5.2615  -5.1755  -5.1339  -4.9173  -4.7465
    -4.4407  -3.8682  -3.8417  -3.8278  -3.8184  -3.8156  -3.7799  -3.7750
    -3.5150  -3.3008  -3.2958  -3.2800  -3.2756  -3.2667  -3.2473  -3.2194
    -0.8377  -0.8204  -0.7899  -0.7394  -0.7146  -0.6829  -0.6361  -0.5999
    -0.5002  -0.4495  -0.3330  -0.2601  -0.2054  -0.1429  -0.1240  -0.1066
    -0.0797  -0.0534  -0.0369  -0.0094   0.1099   0.2217   0.3178   0.3961
     0.4187   0.4358   0.4815   0.4877   0.5128   0.5432   0.5607   0.5970
     0.6204   0.7005   0.7680   0.8004   0.8432   0.8730   0.8911   0.9259
     0.9550   0.9706   0.9829   1.0127   1.0268   1.0501   1.0755   1.0956
     1.1179   1.1386   1.1534   1.1640   1.1829   1.2071   1.2169   1.2380
     1.2592   1.2714   1.2849   1.3142   1.3255   1.3479   1.3815   1.3878
     1.4106   1.4364   1.4542   1.4710   1.4842   1.5078   1.5238   1.5723
     1.5872   1.6106   1.6261   1.6419   1.6770   1.7171   1.8013   1.8975

          k =-0.3705 0.1219-0.1236 (310926 PWs)   bands (ev):

   -20.6377 -17.9178 -17.8834 -17.8757 -17.8723 -17.8618 -17.8233 -17.8201
   -16.8202 -15.6774 -15.6604 -15.6498 -15.6428 -15.6372 -15.5875 -15.5742
   -14.3327 -14.3292 -14.3222 -14.3197 -14.3196 -14.3054 -14.2948 -14.2930
   -14.2911 -14.2906 -14.2902 -14.2889 -14.2822 -14.2811 -14.2807 -14.2776
   -14.2761 -14.2731 -14.2695 -14.2639 -14.2635 -14.2567 -14.2520 -14.2477
   -14.2471 -14.2468 -14.2433 -14.2409 -14.2375 -14.2347 -14.2318 -14.2315
   -14.2300 -14.2271 -14.2127 -14.2117 -14.2071 -14.2069 -14.1994 -14.1886
    -9.8615  -9.7839  -9.7472  -9.7268  -9.6686  -9.6430  -9.6274  -9.6104
    -9.5280  -9.4726  -9.4221  -9.3969  -9.3718  -9.3318  -9.3139  -9.2657
    -9.2430  -9.2324  -9.2099  -9.1907  -9.1718  -9.1173  -9.1087  -9.0807
    -9.0636  -9.0454  -9.0246  -9.0098  -8.9881  -8.9605  -8.9435  -8.9278
    -8.8931  -7.7436  -7.6961  -7.6839  -7.6674  -7.6618  -7.6387  -7.6145
    -7.2324  -7.0640  -7.0531  -7.0510  -7.0453  -7.0411  -6.9919  -6.9563
    -5.7729  -5.5933  -5.3969  -5.3780  -5.3588  -5.3433  -5.3288  -5.3248
    -5.3233  -5.3109  -5.2776  -5.2563  -5.1795  -5.1362  -4.9166  -4.7476
    -4.4406  -3.8680  -3.8417  -3.8277  -3.8190  -3.8154  -3.7798  -3.7750
    -3.5149  -3.3010  -3.2954  -3.2798  -3.2761  -3.2665  -3.2471  -3.2195
    -0.8329  -0.8131  -0.7884  -0.7394  -0.7013  -0.6828  -0.6385  -0.6024
    -0.5016  -0.4754  -0.3450  -0.2616  -0.2020  -0.1558  -0.1261  -0.1135
    -0.0841  -0.0493  -0.0298  -0.0143   0.1234   0.2434   0.3254   0.3943
     0.4249   0.4424   0.4629   0.4945   0.5210   0.5331   0.5538   0.6080
     0.6386   0.6975   0.7706   0.8027   0.8293   0.8741   0.8988   0.9116
     0.9519   0.9753   0.9878   1.0204   1.0292   1.0483   1.0525   1.0889
     1.1303   1.1451   1.1595   1.1657   1.1802   1.1937   1.2240   1.2348
     1.2458   1.2671   1.2821   1.3095   1.3397   1.3544   1.3653   1.3934
     1.4151   1.4277   1.4433   1.4658   1.4987   1.5180   1.5415   1.5628
     1.5916   1.6140   1.6341   1.6479   1.6654   1.7046   1.8114   1.8772

          k = 0.3705-0.1219-0.1236 (310926 PWs)   bands (ev):

   -20.6377 -17.9178 -17.8834 -17.8757 -17.8723 -17.8618 -17.8233 -17.8201
   -16.8202 -15.6774 -15.6604 -15.6498 -15.6428 -15.6372 -15.5875 -15.5742
   -14.3327 -14.3292 -14.3222 -14.3197 -14.3196 -14.3054 -14.2948 -14.2930
   -14.2911 -14.2906 -14.2902 -14.2889 -14.2822 -14.2811 -14.2807 -14.2776
   -14.2761 -14.2731 -14.2695 -14.2639 -14.2635 -14.2567 -14.2520 -14.2477
   -14.2471 -14.2468 -14.2433 -14.2409 -14.2375 -14.2347 -14.2318 -14.2315
   -14.2300 -14.2271 -14.2127 -14.2117 -14.2071 -14.2069 -14.1994 -14.1886
    -9.8613  -9.7827  -9.7475  -9.7277  -9.6679  -9.6428  -9.6324  -9.6104
    -9.5231  -9.4718  -9.4170  -9.4063  -9.3703  -9.3330  -9.3025  -9.2735
    -9.2481  -9.2287  -9.2100  -9.1931  -9.1689  -9.1189  -9.1076  -9.0854
    -9.0613  -9.0387  -9.0280  -9.0109  -8.9879  -8.9612  -8.9405  -8.9304
    -8.8925  -7.7439  -7.6961  -7.6839  -7.6677  -7.6615  -7.6385  -7.6145
    -7.2324  -7.0639  -7.0530  -7.0512  -7.0453  -7.0411  -6.9919  -6.9563
    -5.7733  -5.5929  -5.3973  -5.3779  -5.3562  -5.3444  -5.3313  -5.3258
    -5.3196  -5.3064  -5.2826  -5.2588  -5.1777  -5.1367  -4.9161  -4.7476
    -4.4406  -3.8680  -3.8421  -3.8277  -3.8186  -3.8153  -3.7799  -3.7750
    -3.5149  -3.3011  -3.2957  -3.2800  -3.2758  -3.2665  -3.2470  -3.2193
    -0.8345  -0.8117  -0.7931  -0.7371  -0.7009  -0.6881  -0.6378  -0.5957
    -0.5040  -0.4681  -0.3462  -0.2649  -0.2023  -0.1511  -0.1306  -0.1080
    -0.0900  -0.0477  -0.0301  -0.0126   0.1212   0.2428   0.3218   0.3941
     0.4287   0.4461   0.4670   0.4825   0.5139   0.5449   0.5733   0.5900
     0.6265   0.6871   0.7869   0.8174   0.8468   0.8721   0.8885   0.9278
     0.9362   0.9642   0.9838   1.0000   1.0229   1.0364   1.0804   1.0987
     1.1285   1.1446   1.1533   1.1618   1.1812   1.1997   1.2158   1.2315
     1.2540   1.2772   1.2917   1.3117   1.3269   1.3520   1.3722   1.3852
     1.4144   1.4345   1.4554   1.4711   1.4978   1.5098   1.5367   1.5624
     1.5802   1.6160   1.6236   1.6529   1.6720   1.7040   1.8093   1.8817

          k =-0.3705-0.1219 0.3708 (310912 PWs)   bands (ev):

   -20.6377 -17.9178 -17.8834 -17.8757 -17.8723 -17.8618 -17.8233 -17.8201
   -16.8202 -15.6774 -15.6602 -15.6498 -15.6430 -15.6372 -15.5875 -15.5742
   -14.3326 -14.3291 -14.3218 -14.3196 -14.3195 -14.3052 -14.2948 -14.2930
   -14.2911 -14.2908 -14.2905 -14.2889 -14.2822 -14.2811 -14.2810 -14.2776
   -14.2761 -14.2731 -14.2692 -14.2640 -14.2632 -14.2567 -14.2520 -14.2477
   -14.2472 -14.2471 -14.2437 -14.2409 -14.2375 -14.2347 -14.2318 -14.2315
   -14.2300 -14.2271 -14.2127 -14.2117 -14.2071 -14.2069 -14.1994 -14.1886
    -9.8602  -9.7663  -9.7352  -9.7166  -9.6733  -9.6683  -9.6448  -9.6246
    -9.5268  -9.4459  -9.4224  -9.4169  -9.3646  -9.3411  -9.3127  -9.2923
    -9.2634  -9.2329  -9.2076  -9.1666  -9.1309  -9.1185  -9.0950  -9.0774
    -9.0549  -9.0475  -9.0258  -9.0102  -8.9860  -8.9680  -8.9483  -8.9419
    -8.8951  -7.7436  -7.6937  -7.6849  -7.6702  -7.6598  -7.6386  -7.6156
    -7.2326  -7.0638  -7.0532  -7.0511  -7.0451  -7.0413  -6.9918  -6.9562
    -5.6627  -5.5026  -5.4737  -5.3938  -5.3575  -5.3468  -5.3388  -5.3273
    -5.3244  -5.3047  -5.2830  -5.2542  -5.2051  -5.0594  -5.0333  -4.8764
    -4.4416  -3.8655  -3.8413  -3.8311  -3.8182  -3.8143  -3.7808  -3.7753
    -3.5148  -3.3007  -3.2957  -3.2796  -3.2759  -3.2666  -3.2473  -3.2191
    -0.8045  -0.7521  -0.7046  -0.6565  -0.5761  -0.5163  -0.4239  -0.4069
    -0.3679  -0.3168  -0.2690  -0.2396  -0.1825  -0.1358  -0.1185  -0.0993
    -0.0861  -0.0574  -0.0376   0.0037   0.0847   0.1496   0.2215   0.2450
     0.2704   0.3230   0.3648   0.4223   0.4383   0.4669   0.5075   0.5172
     0.6340   0.6884   0.7191   0.7544   0.7888   0.8259   0.8342   0.8643
     0.9054   0.9303   0.9529   0.9620   0.9853   1.0173   1.0497   1.0659
     1.0903   1.1135   1.1530   1.1642   1.1893   1.2029   1.2290   1.2529
     1.2851   1.2975   1.3052   1.3227   1.3339   1.3441   1.3667   1.3810
     1.4084   1.4227   1.4346   1.4613   1.4669   1.4900   1.5112   1.5350
     1.5588   1.5818   1.5969   1.6338   1.6566   1.6993   1.7171   1.7643

          k =-0.3705 0.1219-0.3708 (310912 PWs)   bands (ev):

   -20.6377 -17.9178 -17.8834 -17.8757 -17.8723 -17.8618 -17.8233 -17.8201
   -16.8202 -15.6774 -15.6602 -15.6498 -15.6430 -15.6372 -15.5875 -15.5742
   -14.3326 -14.3291 -14.3218 -14.3196 -14.3195 -14.3052 -14.2948 -14.2930
   -14.2911 -14.2908 -14.2905 -14.2889 -14.2822 -14.2811 -14.2810 -14.2776
   -14.2761 -14.2731 -14.2692 -14.2640 -14.2632 -14.2567 -14.2520 -14.2477
   -14.2472 -14.2471 -14.2437 -14.2409 -14.2375 -14.2347 -14.2318 -14.2315
   -14.2300 -14.2271 -14.2127 -14.2117 -14.2071 -14.2069 -14.1994 -14.1886
    -9.8600  -9.7666  -9.7356  -9.7177  -9.6763  -9.6662  -9.6443  -9.6200
    -9.5286  -9.4479  -9.4298  -9.3983  -9.3746  -9.3508  -9.3060  -9.2892
    -9.2548  -9.2349  -9.2140  -9.1713  -9.1346  -9.1090  -9.0920  -9.0831
    -9.0576  -9.0468  -9.0267  -9.0041  -8.9840  -8.9697  -8.9571  -8.9341
    -8.8963  -7.7434  -7.6939  -7.6847  -7.6694  -7.6607  -7.6388  -7.6158
    -7.2326  -7.0638  -7.0534  -7.0508  -7.0450  -7.0413  -6.9918  -6.9563
    -5.6617  -5.5042  -5.4786  -5.3913  -5.3543  -5.3470  -5.3384  -5.3276
    -5.3236  -5.3005  -5.2839  -5.2582  -5.2031  -5.0597  -5.0343  -4.8773
    -4.4415  -3.8653  -3.8412  -3.8309  -3.8191  -3.8140  -3.7807  -3.7753
    -3.5147  -3.3008  -3.2953  -3.2795  -3.2764  -3.2664  -3.2472  -3.2193
    -0.7978  -0.7346  -0.7069  -0.6562  -0.5743  -0.5161  -0.4355  -0.4216
[...]
    -9.7642  -9.7505  -9.7162  -9.7000  -9.6816  -9.6532  -9.6277  -9.5911
    -9.4531  -9.4296  -9.4113  -9.3853  -9.3715  -9.3377  -9.3147  -9.2700
    -9.2212  -9.1702  -9.1495  -9.1238  -9.1004  -9.0845  -9.0714  -9.0485
    -9.0252  -9.0053  -8.9854  -8.9707  -8.9487  -8.9344  -8.9203  -8.8874
    -7.7992  -7.6886  -7.6732  -7.6632  -7.6444  -7.6406  -7.6284  -7.6181
    -7.1393  -7.0712  -7.0661  -7.0274  -7.0194  -6.9993  -6.9937  -6.9168
    -5.5374  -5.4576  -5.4009  -5.3741  -5.3521  -5.3329  -5.3276  -5.3176
    -5.3086  -5.2893  -5.2747  -5.2471  -5.1944  -5.1445  -5.1381  -4.9916
    -3.8791  -3.8523  -3.8313  -3.8195  -3.7956  -3.7887  -3.7699  -3.7491
    -3.3253  -3.2935  -3.2587  -3.2557  -3.2425  -3.2349  -3.2248  -3.1886
    -0.5219  -0.4885  -0.4462  -0.4295  -0.3810  -0.3511  -0.3336  -0.3024
    -0.2890  -0.2673  -0.2558  -0.1854  -0.1429  -0.1226  -0.1074  -0.0877
    -0.0588  -0.0389  -0.0250   0.0218   0.1222   0.1722   0.1792   0.2434
     0.2572   0.2833   0.3102   0.3288   0.3601   0.3955   0.4243   0.4588
     0.6692   0.6946   0.7288   0.7494   0.7854   0.8033   0.8201   0.8520
     0.8902   0.8983   0.9210   0.9490   0.9673   0.9771   0.9928   1.0239
     1.0720   1.0798   1.0981   1.1144   1.1328   1.1470   1.1699   1.1917
     1.2774   1.3081   1.3305   1.3567   1.3679   1.3784   1.3901   1.4061
     1.4202   1.4440   1.4522   1.4698   1.4898   1.5096   1.5430   1.5487
     1.5652   1.5897   1.5983   1.6095   1.6279   1.6439   1.6676   1.6927

          k = 0.3704-0.3666-0.3711 (310927 PWs)   bands (ev):

   -17.9551 -17.8878 -17.8612 -17.8488 -17.8316 -17.8288 -17.8214 -17.7933
   -15.7266 -15.7136 -15.6642 -15.6343 -15.6256 -15.6072 -15.5993 -15.5432
   -14.3281 -14.3206 -14.2914 -14.2911 -14.2884 -14.2850 -14.2814 -14.2795
   -14.2682 -14.2559 -14.2549 -14.2547 -14.2512 -14.2506 -14.2470 -14.2448
   -14.2421 -14.2412 -14.2389 -14.2354 -14.2299 -14.2274 -14.2206 -14.2205
   -14.2172 -14.2171 -14.2140 -14.2127 -14.2119 -14.2118 -14.2101 -14.2070
   -14.1972 -14.1954 -14.1886 -14.1808 -14.1804 -14.1793 -14.1754 -14.1678
    -9.7631  -9.7493  -9.7128  -9.7039  -9.6856  -9.6535  -9.6270  -9.5908
    -9.4566  -9.4256  -9.4035  -9.3963  -9.3691  -9.3297  -9.3112  -9.2785
    -9.2244  -9.1708  -9.1489  -9.1235  -9.0999  -9.0818  -9.0731  -9.0524
    -9.0194  -9.0042  -8.9920  -8.9652  -8.9489  -8.9342  -8.9238  -8.8859
    -7.7994  -7.6885  -7.6732  -7.6632  -7.6443  -7.6406  -7.6286  -7.6178
    -7.1393  -7.0711  -7.0662  -7.0274  -7.0195  -6.9992  -6.9938  -6.9168
    -5.5390  -5.4583  -5.4060  -5.3682  -5.3462  -5.3381  -5.3195  -5.3090
    -5.3042  -5.2967  -5.2770  -5.2635  -5.1875  -5.1486  -5.1362  -4.9905
    -3.8791  -3.8524  -3.8315  -3.8192  -3.7961  -3.7883  -3.7699  -3.7491
    -3.3255  -3.2937  -3.2588  -3.2556  -3.2424  -3.2348  -3.2248  -3.1885
    -0.5446  -0.4836  -0.4460  -0.4014  -0.3952  -0.3475  -0.3306  -0.3081
    -0.2982  -0.2568  -0.2116  -0.1907  -0.1611  -0.1395  -0.1114  -0.0871
    -0.0722  -0.0360  -0.0196   0.0325   0.1157   0.1558   0.1959   0.2202
     0.2746   0.2961   0.3124   0.3385   0.3643   0.3893   0.4077   0.4621
     0.6661   0.7005   0.7188   0.7512   0.7715   0.8147   0.8233   0.8670
     0.8794   0.8961   0.9147   0.9491   0.9651   0.9807   0.9949   1.0181
     1.0706   1.0829   1.0947   1.1223   1.1285   1.1510   1.1632   1.2074
     1.2748   1.3091   1.3335   1.3492   1.3687   1.3751   1.3954   1.4113
     1.4244   1.4325   1.4532   1.4749   1.4996   1.5135   1.5387   1.5477
     1.5579   1.5741   1.5953   1.6143   1.6286   1.6429   1.6745   1.6921

     highest occupied level (ev):     2.1175

!    total energy              =  -16707.46749200 Ry
     Harris-Foulkes estimate   =  -16707.46749200 Ry
     estimated scf accuracy    <          1.1E-09 Ry

     total all-electron energy =   -678114.527177 Ry

     The total energy is the sum of the following terms:

     one-electron contribution =    -948.38186958 Ry
     hartree contribution      =     673.82649018 Ry
     xc contribution           =    -795.82565998 Ry
     ewald contribution        =   -1218.45469412 Ry
     DFT-D3 Dispersion         =      -0.64594266 Ry
     one-center paw contrib.   =  -14417.98581584 Ry

     convergence has been achieved in   9 iterations

     Forces acting on atoms (cartesian axes, Ry/au):

     atom    1 type  1   force =    -0.00085320   -0.00009825    0.00038494
     atom    2 type  1   force =     0.00024162    0.00017035   -0.00038528
     atom    3 type  1   force =    -0.00020900    0.00011379   -0.00014613
     atom    4 type  1   force =     0.00017361    0.00008452    0.00003769
     atom    5 type  1   force =     0.00001579   -0.00004203    0.00001589
     atom    6 type  1   force =     0.00011627    0.00003325   -0.00004827
     atom    7 type  1   force =    -0.00013983    0.00028134    0.00022479
     atom    8 type  1   force =     0.00015420   -0.00025621   -0.00012073
     atom    9 type  2   force =    -0.00001818    0.00004461   -0.00022953
     atom   10 type  2   force =     0.00015248    0.00059412   -0.00053576
     atom   11 type  2   force =     0.00023552    0.00015269   -0.00022886
     atom   12 type  2   force =     0.00013448   -0.00020901    0.00011767
     atom   13 type  2   force =     0.00000148    0.00002449   -0.00008442
     atom   14 type  2   force =    -0.00000720    0.00003971    0.00002129
     atom   15 type  2   force =     0.00004976    0.00001594    0.00010996
     atom   16 type  2   force =    -0.00017756    0.00001226   -0.00000265
     atom   17 type  2   force =    -0.00008560   -0.00004020   -0.00016754
     atom   18 type  2   force =    -0.00000638    0.00028077   -0.00004210
     atom   19 type  2   force =    -0.00010937   -0.00016084    0.00029924
     atom   20 type  2   force =    -0.00008154   -0.00009011    0.00008161
     atom   21 type  2   force =     0.00017424    0.00022214    0.00055978
     atom   22 type  2   force =     0.00114871   -0.00006487    0.00068322
     atom   23 type  2   force =    -0.00010557    0.00000458   -0.00006640
     atom   24 type  2   force =     0.00039399    0.00014922   -0.00080551
     atom   25 type  2   force =    -0.00006591   -0.00001968    0.00017035
     atom   26 type  2   force =    -0.00046431    0.00049538    0.00010679
     atom   27 type  2   force =     0.00066851   -0.00066042    0.00015713
     atom   28 type  2   force =     0.00003062   -0.00003050   -0.00001582
     atom   29 type  2   force =     0.00026617    0.00128931    0.00014521
     atom   30 type  2   force =    -0.00001720   -0.00009499    0.00004397
     atom   31 type  2   force =    -0.00011215   -0.00008679   -0.00002121
     atom   32 type  2   force =     0.00008965    0.00016425   -0.00008793
     atom   33 type  3   force =     0.00075274    0.00044839    0.00106713
     atom   34 type  3   force =    -0.00198387    0.00041050   -0.00124855
     atom   35 type  3   force =     0.00328306    0.00094262    0.00029384
     atom   36 type  3   force =     0.00148939   -0.00163495    0.00007911
     atom   37 type  3   force =     0.00614216   -0.01224259   -0.00184160
     atom   38 type  3   force =     0.00203658   -0.00167996   -0.00122531
     atom   39 type  3   force =    -0.00052695   -0.00050246    0.00110736
     atom   40 type  3   force =    -0.00171005    0.00031540    0.00142627
     atom   41 type  4   force =    -0.00049503   -0.00043815   -0.00095660
     atom   42 type  4   force =     0.00139477    0.00018395    0.00122079
     atom   43 type  4   force =    -0.00170733   -0.00095749   -0.00033144
     atom   44 type  4   force =    -0.00016424    0.00032617   -0.00011188
     atom   45 type  4   force =    -0.00098198    0.01234207   -0.00346015
     atom   46 type  4   force =    -0.00075875    0.00043699    0.00090770
     atom   47 type  4   force =     0.00076873   -0.00010767   -0.00097447
     atom   48 type  4   force =     0.00106982    0.00034134   -0.00152475
     atom   49 type  4   force =    -0.00049554   -0.00000943   -0.00079744
     atom   50 type  4   force =     0.00093305   -0.00126739   -0.00000330
     atom   51 type  4   force =    -0.00219343   -0.00101827   -0.00004060
     atom   52 type  4   force =    -0.00157652    0.00190322   -0.00032460
     atom   53 type  4   force =    -0.00048088    0.00686788   -0.00182759
     atom   54 type  4   force =    -0.00176001    0.00169576    0.00076793
     atom   55 type  4   force =     0.00019245    0.00037848   -0.00041472
     atom   56 type  4   force =     0.00108806   -0.00031936   -0.00080317
     atom   57 type  5   force =    -0.00071884    0.00068891   -0.00003329
     atom   58 type  5   force =    -0.00001249    0.00079448    0.00051798
     atom   59 type  5   force =    -0.00008780    0.00024836    0.00103196
     atom   60 type  5   force =    -0.00010863    0.00088548   -0.00058884
     atom   61 type  5   force =    -0.00286318    0.00440131   -0.00460491
     atom   62 type  5   force =     0.00009261    0.00143902    0.00004102
     atom   63 type  5   force =    -0.00081011    0.00100563   -0.00005859
     atom   64 type  5   force =     0.00015809    0.00072828   -0.00064356
     atom   65 type  5   force =     0.00042031   -0.00038792    0.00003248
     atom   66 type  5   force =    -0.00045809   -0.00036744   -0.00065595
     atom   67 type  5   force =     0.00021836    0.00008870   -0.00052173
     atom   68 type  5   force =    -0.00026434   -0.00020979    0.00029027
     atom   69 type  5   force =     0.00525687   -0.00942078   -0.00010063
     atom   70 type  5   force =    -0.00022731   -0.00088328    0.00048126
     atom   71 type  5   force =     0.00028521   -0.00038866    0.00003358
     atom   72 type  5   force =    -0.00043066   -0.00020859    0.00065953
     atom   73 type  5   force =    -0.00020864   -0.00007430   -0.00007464
     atom   74 type  5   force =    -0.00074677    0.00035846   -0.00047489
     atom   75 type  5   force =    -0.00004953   -0.00047993   -0.00031200
     atom   76 type  5   force =    -0.00024575   -0.00029148    0.00026147
     atom   77 type  5   force =    -0.00105528   -0.00174059    0.00710083
     atom   78 type  5   force =     0.00002878   -0.00056569    0.00051874
     atom   79 type  5   force =    -0.00111496    0.00029685    0.00072497
     atom   80 type  5   force =    -0.00043473    0.00012218    0.00034179
     atom   81 type  5   force =     0.00066879   -0.00004171    0.00032234
     atom   82 type  5   force =     0.00014512   -0.00008487    0.00009487
     atom   83 type  5   force =     0.00097205    0.00058624   -0.00020162
     atom   84 type  5   force =     0.00041594   -0.00089695    0.00009011
     atom   85 type  5   force =    -0.00756666   -0.00047265   -0.00064171
     atom   86 type  5   force =     0.00038396   -0.00123089   -0.00033207
     atom   87 type  5   force =     0.00094151   -0.00065389   -0.00002256
     atom   88 type  5   force =     0.00014246   -0.00022477    0.00014975
     atom   89 type  5   force =     0.00035609    0.00041955    0.00037038
     atom   90 type  5   force =     0.00044239   -0.00036454    0.00039106
     atom   91 type  5   force =     0.00129359    0.00073134    0.00051651
     atom   92 type  5   force =     0.00025074   -0.00026005   -0.00007613
     atom   93 type  5   force =    -0.00208649   -0.00220239    0.00461759
     atom   94 type  5   force =     0.00046773   -0.00008828   -0.00072018
     atom   95 type  5   force =     0.00045601    0.00023963    0.00006281
     atom   96 type  5   force =     0.00018327   -0.00022885    0.00025665

     Total force =     0.028829     Total SCF correction =     0.000088


     Computing stress (Cartesian axis) and pressure

          total   stress  (Ry/bohr**3)                   (kbar)     P=    0.25
  -0.00000216  -0.00000115  -0.00000634         -0.32     -0.17     -0.93
  -0.00000115   0.00000596   0.00000086         -0.17      0.88      0.13
  -0.00000634   0.00000086   0.00000129         -0.93      0.13      0.19


     number of scf cycles    =  15
     number of bfgs steps    =  13

     enthalpy old            =  -16707.4664473705 Ry
     enthalpy new            =  -16707.4674919984 Ry

     CASE: enthalpy_new < enthalpy_old

     new trust radius        =       0.0632004623 bohr
     new conv_thr            =       0.0000000104 Ry

     new unit-cell volume =  13961.25445 a.u.^3 (  2068.84444 Ang^3 )
     density =      4.06925 g/cm^3

CELL_PARAMETERS (alat= 23.71984200)
   1.011704868   0.000000000   0.000000000
   0.000000000   1.023303103   0.000000000
   0.000000000   0.000000000   1.010487479

ATOMIC_POSITIONS (crystal)
Pb      -0.012504356  -0.023649290   0.007966885
Pb       0.485576055  -0.018135261   0.002479272
Pb      -0.014186314   0.481818310   0.009654760
Pb       0.023304995  -0.018339929   0.512219588
Pb       0.487285423   0.482330410  -0.003593939
Pb       0.020770119   0.477945803   0.506357718
Pb       0.525781529  -0.017990868   0.502385701
Pb       0.520270300   0.485446638   0.499884422
I        0.236507058  -0.009451747  -0.041298096
I        0.736646276  -0.006462064   0.044753792
I        0.235317559   0.487943691   0.058627946
I        0.271624825  -0.030483644   0.526403357
I        0.736215080   0.489970327  -0.052582810
I        0.272085431   0.473843899   0.460912787
I        0.771930414  -0.017369906   0.480577986
I        0.772724312   0.461795191   0.539496307
I       -0.029205884   0.232852357   0.007937848
I        0.470746469   0.232401283   0.008385864
I       -0.031175032   0.732447312   0.002768173
I        0.042587187   0.229780101   0.503586011
I        0.471180000   0.732912930  -0.000528725
I        0.026160885   0.728588670   0.512875865
I        0.532210391   0.231162500   0.504028893
I        0.541624588   0.731299080   0.505157611
I        0.035497502  -0.033053108   0.258412759
I        0.469074530  -0.019691762   0.253988026
I       -0.050342194   0.482621935   0.257906152
I       -0.041342288  -0.018566489   0.758742654
I        0.552346784   0.483434407   0.246707794
I        0.050572417   0.477989167   0.758382293
I        0.532875862  -0.024123070   0.755511124
I        0.456652557   0.469139212   0.748174580
C        0.236072516   0.251257982   0.250870615
C        0.763311972   0.254579600   0.276952677
C        0.246205003   0.734354793   0.294306420
C        0.258461794   0.251193181   0.733584903
C        0.757875102   0.791666121   0.253456991
C        0.254282588   0.772070202   0.747368252
C        0.733575486   0.252471548   0.755956555
C        0.758876916   0.751093140   0.735375815
N        0.203717453   0.197024235   0.169418205
N        0.692878947   0.235526209   0.203579193
N        0.164439003   0.679301744   0.264909136
N        0.187383592   0.234084645   0.806788420
N        0.671851753   0.745875783   0.218636109
N        0.176361313   0.731540022   0.801562251
N        0.704653010   0.202345759   0.841337614
N        0.688535229   0.743786554   0.810856863
N        0.314203948   0.224898407   0.313258915
N        0.847422412   0.197928861   0.294709347
N        0.342269140   0.720808167   0.258285985
N        0.339371247   0.190836707   0.714102219
N        0.844698067   0.745026674   0.283637540
N        0.328507910   0.718470863   0.700417973
N        0.810739945   0.224303402   0.693310273
N        0.836214458   0.684938696   0.720695076
H        0.195619476   0.324249459   0.268263142
H        0.750891140   0.322785199   0.326969617
H        0.234181891   0.795658513   0.352877960
H        0.249437793   0.321228830   0.685390795
H        0.759442349   0.876445862   0.258049188
H        0.257396553   0.856769753   0.740391348
H        0.690569775   0.323250132   0.735311729
H        0.752794869   0.816952292   0.681067832
H        0.237582480   0.128482585   0.146896057
H        0.698719605   0.173036052   0.153598545
H        0.170332880   0.619498141   0.211550911
H        0.190741520   0.170442165   0.855580578
H        0.658970795   0.667427135   0.218177809
H        0.163370274   0.652847256   0.805886490
H        0.740566049   0.135754299   0.866779377
H        0.689250601   0.683602006   0.863984252
H        0.141569010   0.222512008   0.124611121
H        0.630480213   0.285002538   0.195136033
H        0.094735035   0.690018099   0.303221555
H        0.127025206   0.285840819   0.815986940
H        0.612707144   0.791628478   0.189456336
H        0.122272680   0.778006269   0.837684193
H        0.642632822   0.228434306   0.885644429
H        0.629671563   0.797812118   0.815291060
H        0.356997514   0.158093454   0.302791604
H        0.865328852   0.132702944   0.252373126
H        0.359810626   0.666452588   0.202391847
H        0.353984000   0.124083686   0.755405731
H        0.858864991   0.666425604   0.278566240
H        0.335977790   0.639220360   0.707736741
H        0.854997991   0.158740232   0.706326972
H        0.845940425   0.620736568   0.767171617
H        0.333325762   0.272159939   0.375062695
H        0.898435087   0.217418758   0.354191742
H        0.400090001   0.771253997   0.280647034
H        0.392041075   0.209977470   0.655861876
H        0.906768234   0.792296116   0.302196595
H        0.385267528   0.755106988   0.656948122
H        0.826658022   0.268836271   0.628493190
H        0.888292008   0.696043243   0.660040828



     Writing output data file FAPbI83_vcrelax8.save/
     NEW-OLD atomic charge density approx. for the potential
     extrapolated charge  431.91154, renormalised to  432.00000

     total cpu time spent up to now is   424913.6 secs

     Self-consistent Calculation

     iteration #  1     ecut=   120.00 Ry     beta= 0.70
     Davidson diagonalization with overlap
     ethr =  1.00E-06,  avg # of iterations =  4.0

     total cpu time spent up to now is   427876.9 secs

     total energy              =  -16707.46822669 Ry
     Harris-Foulkes estimate   =  -16707.61311073 Ry
     estimated scf accuracy    <       0.00070824 Ry

     iteration #  2     ecut=   120.00 Ry     beta= 0.70
     Davidson diagonalization with overlap
     ethr =  1.64E-07,  avg # of iterations =  3.0

     total cpu time spent up to now is   430148.7 secs

     total energy              =  -16707.46838902 Ry
     Harris-Foulkes estimate   =  -16707.46850004 Ry
     estimated scf accuracy    <       0.00021656 Ry

     iteration #  3     ecut=   120.00 Ry     beta= 0.70
     Davidson diagonalization with overlap
     ethr =  5.01E-08,  avg # of iterations =  3.8

     total cpu time spent up to now is   432323.2 secs

     total energy              =  -16707.46844170 Ry
     Harris-Foulkes estimate   =  -16707.46845568 Ry
     estimated scf accuracy    <       0.00003989 Ry

     iteration #  4     ecut=   120.00 Ry     beta= 0.70
     Davidson diagonalization with overlap
     ethr =  9.23E-09,  avg # of iterations =  4.0

     total cpu time spent up to now is   434349.2 secs

     total energy              =  -16707.46845086 Ry
     Harris-Foulkes estimate   =  -16707.46845572 Ry
     estimated scf accuracy    <       0.00001484 Ry

     iteration #  5     ecut=   120.00 Ry     beta= 0.70
     Davidson diagonalization with overlap
     ethr =  3.44E-09,  avg # of iterations =  4.0

     total cpu time spent up to now is   436233.1 secs

     total energy              =  -16707.46845406 Ry
     Harris-Foulkes estimate   =  -16707.46845474 Ry
     estimated scf accuracy    <       0.00000289 Ry

     iteration #  6     ecut=   120.00 Ry     beta= 0.70
     Davidson diagonalization with overlap
     ethr =  6.70E-10,  avg # of iterations =  4.0

     total cpu time spent up to now is   438268.8 secs

     total energy              =  -16707.46845447 Ry
     Harris-Foulkes estimate   =  -16707.46845490 Ry
     estimated scf accuracy    <       0.00000089 Ry

     iteration #  7     ecut=   120.00 Ry     beta= 0.70
     Davidson diagonalization with overlap
