
     Program PWSCF v.6.4 starts on 23Jul2020 at 15:30:13 

     This program is part of the open-source Quantum ESPRESSO suite
     for quantum simulation of materials; please cite
         "P. Giannozzi et al., J. Phys.:Condens. Matter 21 395502 (2009);
         "P. Giannozzi et al., J. Phys.:Condens. Matter 29 465901 (2017);
          URL http://www.quantum-espresso.org", 
     in publications or presentations arising from this work. More details at
     http://www.quantum-espresso.org/quote

     Parallel version (MPI), running on    32 processors

     MPI processes distributed on     1 nodes
     R & G space division:  proc/nbgrp/npool/nimage =      32
     Waiting for input...
     Reading input from standard input

     Current dimensions of program PWSCF are:
     Max number of different atomic species (ntypx) = 10
     Max number of k-points (npk) =  40000
     Max angular momentum in pseudopotentials (lmaxx) =  3
               file Pb.pbe-dn-kjpaw_psl.1.0.0.UPF: wavefunction(s)  6S 6P 5D renormalized
               file I.pbe-n-kjpaw_psl.1.0.0.UPF: wavefunction(s)  5S renormalized
               file C.pbe-n-kjpaw_psl.1.0.0.UPF: wavefunction(s)  2S 2P renormalized
               file N.pbe-n-kjpaw_psl.1.0.0.UPF: wavefunction(s)  2S renormalized
               file H.pbe-kjpaw_psl.1.0.0.UPF: wavefunction(s)  1S renormalized

     --------------------------------------------
     Parameters for DFT-D3 Dispersion Correction:
     --------------------------------------------
       Reference C6 values for interpolation: 

         atom   Coordination number   C6
         H          0.912             6.05
         H          0.000            15.18
         C          0.000            98.23
         C          0.987            86.49
         C          1.998            58.72
         C          2.999            51.56
         C          3.984            36.41
         N          0.000            50.54
         N          0.994            44.25
         N          2.014            39.35
         N          2.990            31.16
         I          0.000           703.93
         I          0.997           717.00
         Pb         0.000          1477.63
         Pb         0.938          1266.00
         Pb         1.936          1088.91
         Pb         2.908          1048.37
         Pb         3.910           910.57

       Values used:

         atom   Coordination number  R0_AB[au]  C6      C8
         Pb         4.775            4.041    910.57 144158.48
         Pb         4.812            4.041    910.57 144158.39
         Pb         4.709            4.041    910.57 144158.73
         Pb         4.763            4.041    910.57 144158.52
         Pb         4.695            4.041    910.58 144158.81
         Pb         4.791            4.041    910.57 144158.44
         Pb         4.864            4.041    910.57 144158.29
         Pb         4.728            4.041    910.57 144158.65
         I          1.918            3.532    717.00  65855.99
         I          1.951            3.532    717.00  65856.00
         I          1.846            3.532    717.00  65855.98
         I          1.936            3.532    717.00  65855.99
         I          1.855            3.532    717.00  65855.98
         I          1.908            3.532    717.00  65855.99
         I          1.977            3.532    717.00  65856.00
         I          1.939            3.532    717.00  65855.99
         I          1.895            3.532    717.00  65855.99
         I          1.949            3.532    717.00  65855.99
         I          1.941            3.532    717.00  65855.99
         I          1.976            3.532    717.00  65856.00
         I          1.896            3.532    717.00  65855.99
         I          1.944            3.532    717.00  65855.99
         I          1.954            3.532    717.00  65856.00
         I          1.908            3.532    717.00  65855.99
         I          1.903            3.532    717.00  65855.99
         I          1.973            3.532    717.00  65856.00
         I          1.945            3.532    717.00  65855.99
         I          1.931            3.532    717.00  65855.99
         I          1.866            3.532    717.00  65855.98
         I          1.883            3.532    717.00  65855.99
         I          1.978            3.532    717.00  65856.00
         I          1.943            3.532    717.00  65855.99
         C          3.068            2.750     51.06   1476.71
         C          3.072            2.750     51.04   1476.16
         C          3.072            2.750     51.04   1476.16
         C          3.074            2.750     51.03   1475.84
         C          3.077            2.750     51.01   1475.37
         C          3.069            2.750     51.05   1476.47
         C          3.070            2.750     51.05   1476.34
         C          3.067            2.750     51.06   1476.76
         N          3.102            2.478     31.23    689.04
         N          3.099            2.478     31.24    689.08
         N          3.108            2.478     31.23    688.97
         N          3.101            2.478     31.23    689.05
         N          3.099            2.478     31.24    689.07
         N          3.099            2.478     31.24    689.07
         N          3.104            2.478     31.23    689.01
         N          3.104            2.478     31.23    689.01
         N          3.098            2.478     31.24    689.09
         N          3.106            2.478     31.23    688.99
         N          3.099            2.478     31.24    689.08
         N          3.106            2.478     31.23    688.99
         N          3.102            2.478     31.23    689.04
         N          3.101            2.478     31.23    689.05
         N          3.101            2.478     31.23    689.05
         N          3.107            2.478     31.23    688.98
         H          1.016            2.062      6.17     74.55
         H          1.018            2.062      6.17     74.53
         H          1.019            2.062      6.16     74.52
         H          1.018            2.062      6.17     74.53
         H          1.024            2.062      6.16     74.47
         H          1.021            2.062      6.16     74.50
         H          1.017            2.062      6.17     74.54
         H          1.016            2.062      6.17     74.55
         H          1.026            2.062      6.16     74.46
         H          1.052            2.062      6.14     74.23
         H          1.062            2.062      6.14     74.16
         H          1.049            2.062      6.14     74.26
         H          1.052            2.062      6.14     74.24
         H          1.043            2.062      6.15     74.30
         H          1.032            2.062      6.16     74.41
         H          1.046            2.062      6.15     74.28
         H          1.076            2.062      6.13     74.07
         H          1.050            2.062      6.14     74.25
         H          1.033            2.062      6.15     74.40
         H          1.053            2.062      6.14     74.23
         H          1.031            2.062      6.16     74.41
         H          1.036            2.062      6.15     74.37
         H          1.059            2.062      6.14     74.19
         H          1.065            2.062      6.13     74.14
         H          1.049            2.062      6.14     74.26
         H          1.025            2.062      6.16     74.46
         H          1.031            2.062      6.16     74.41
         H          1.028            2.062      6.16     74.44
         H          1.053            2.062      6.14     74.23
         H          1.052            2.062      6.14     74.24
         H          1.060            2.062      6.14     74.17
         H          1.025            2.062      6.16     74.47
         H          1.041            2.062      6.15     74.32
         H          1.069            2.062      6.13     74.12
         H          1.033            2.062      6.15     74.39
         H          1.064            2.062      6.13     74.15
         H          1.035            2.062      6.15     74.37
         H          1.042            2.062      6.15     74.32
         H          1.044            2.062      6.15     74.30
         H          1.081            2.062      6.12     74.04

         Molecular C6 ( Ry / a.u.^6 ) =   1270629.97


     Subspace diagonalization in iterative solution of the eigenvalue problem:
     a serial algorithm will be used


     Parallelization info
     --------------------
     sticks:   dense  smooth     PW     G-vecs:    dense   smooth      PW
     Min         696     696    179                77594    77594   10153
     Max         697     697    180                77601    77601   10158
     Sum       22299   22299   5745              2483137  2483137  324969



     bravais-lattice index     =            0
     lattice parameter (alat)  =      24.0513  a.u.
     unit-cell volume          =   13982.0544 (a.u.)^3
     number of atoms/cell      =           96
     number of atomic types    =            5
     number of electrons       =       432.00
     number of Kohn-Sham states=          216
     kinetic-energy cutoff     =     120.0000  Ry
     charge density cutoff     =     480.0000  Ry
     convergence threshold     =      1.0E-07
     mixing beta               =       0.7000
     number of iterations used =            8  plain     mixing
     Exchange-correlation      = SLA PW PBX PBC ( 1  4  3  4 0 0)
     nstep                     =          100


     celldm(1)=  24.051314  celldm(2)=   0.000000  celldm(3)=   0.000000
     celldm(4)=   0.000000  celldm(5)=   0.000000  celldm(6)=   0.000000

     crystal axes: (cart. coord. in units of alat)
               a(1) = (   1.000000   0.000000   0.000000 )  
               a(2) = (   0.000000   1.009614   0.000000 )  
               a(3) = (   0.000000   0.000000   0.995403 )  

     reciprocal axes: (cart. coord. in units 2 pi/alat)
               b(1) = (  1.000000  0.000000  0.000000 )  
               b(2) = (  0.000000  0.990477  0.000000 )  
               b(3) = (  0.000000  0.000000  1.004618 )  


     PseudoPot. # 1 for Pb read from file:
     ../../../Pseudopotential/Pb.pbe-dn-kjpaw_psl.1.0.0.UPF
     MD5 check sum: 684fc8fbce61a260853528575e4d9ab7
     Pseudo is Projector augmented-wave + core cor, Zval = 14.0
     Generated using "atomic" code by A. Dal Corso v.6.3
     Shape of augmentation charge: PSQ
     Using radial grid of 1281 points,  6 beta functions with: 
                l(1) =   0
                l(2) =   0
                l(3) =   1
                l(4) =   1
                l(5) =   2
                l(6) =   2
     Q(r) pseudized with 0 coefficients 


     PseudoPot. # 2 for I  read from file:
     ../../../Pseudopotential/I.pbe-n-kjpaw_psl.1.0.0.UPF
     MD5 check sum: cd3d296c3308a581e1559a0c8a554cb5
     Pseudo is Projector augmented-wave + core cor, Zval =  7.0
     Generated using "atomic" code by A. Dal Corso v.6.3
     Shape of augmentation charge: PSQ
     Using radial grid of 1247 points,  6 beta functions with: 
                l(1) =   0
                l(2) =   0
                l(3) =   1
                l(4) =   1
                l(5) =   2
                l(6) =   2
     Q(r) pseudized with 0 coefficients 


     PseudoPot. # 3 for C  read from file:
     ../../../Pseudopotential/C.pbe-n-kjpaw_psl.1.0.0.UPF
     MD5 check sum: 5f16ad9a65e90284d1d834d4ab3b0f7d
     Pseudo is Projector augmented-wave + core cor, Zval =  4.0
     Generated using "atomic" code by A. Dal Corso v.6.3
     Shape of augmentation charge: PSQ
     Using radial grid of 1073 points,  4 beta functions with: 
                l(1) =   0
                l(2) =   0
                l(3) =   1
                l(4) =   1
     Q(r) pseudized with 0 coefficients 


     PseudoPot. # 4 for N  read from file:
     ../../../Pseudopotential/N.pbe-n-kjpaw_psl.1.0.0.UPF
     MD5 check sum: 14c48229446f9f2d411169a3abcbc3fa
     Pseudo is Projector augmented-wave + core cor, Zval =  5.0
     Generated using "atomic" code by A. Dal Corso v.6.3
     Shape of augmentation charge: PSQ
     Using radial grid of 1085 points,  4 beta functions with: 
                l(1) =   0
                l(2) =   0
                l(3) =   1
                l(4) =   1
     Q(r) pseudized with 0 coefficients 


     PseudoPot. # 5 for H  read from file:
     ../../../Pseudopotential/H.pbe-kjpaw_psl.1.0.0.UPF
     MD5 check sum: d81a744832360e4a8af0b0b5b123bc2a
     Pseudo is Projector augmented-wave, Zval =  1.0
     Generated using "atomic" code by A. Dal Corso v.6.3MaX
     Shape of augmentation charge: PSQ
     Using radial grid of  929 points,  2 beta functions with: 
                l(1) =   0
                l(2) =   0
     Q(r) pseudized with 0 coefficients 


     atomic species   valence    mass     pseudopotential
        Pb            14.00   207.97600     Pb( 1.00)
        I              7.00   126.90400     I ( 1.00)
        C              4.00    12.00000     C ( 1.00)
        N              5.00    14.00300     N ( 1.00)
        H              1.00     1.00700     H ( 1.00)

     No symmetry found



   Cartesian axes

     site n.     atom                  positions (alat units)
         1           Pb  tau(   1) = (  -0.0141339  -0.0244215   0.0085111  )
         2           Pb  tau(   2) = (   0.4847220  -0.0162663   0.0019609  )
         3           Pb  tau(   3) = (  -0.0183223   0.4850868   0.0090193  )
         4           Pb  tau(   4) = (   0.0248210  -0.0180569   0.5091778  )
         5           Pb  tau(   5) = (   0.4836809   0.4874863  -0.0045640  )
         6           Pb  tau(   6) = (   0.0209711   0.4819420   0.5029519  )
         7           Pb  tau(   7) = (   0.5260212  -0.0144153   0.4977264  )
         8           Pb  tau(   8) = (   0.5215354   0.4908604   0.4969486  )
         9           I   tau(   9) = (   0.2359624  -0.0114424  -0.0418363  )
        10           I   tau(  10) = (   0.7365118  -0.0050628   0.0453243  )
        11           I   tau(  11) = (   0.2335863   0.4912943   0.0538999  )
        12           I   tau(  12) = (   0.2736453  -0.0305809   0.5267601  )
        13           I   tau(  13) = (   0.7344961   0.4961609  -0.0534319  )
        14           I   tau(  14) = (   0.2726869   0.4806828   0.4599198  )
        15           I   tau(  15) = (   0.7724520  -0.0191259   0.4787587  )
        16           I   tau(  16) = (   0.7731828   0.4708878   0.5394411  )
        17           I   tau(  17) = (  -0.0315925   0.2349497   0.0110047  )
        18           I   tau(  18) = (   0.4656382   0.2353486   0.0034879  )
        19           I   tau(  19) = (  -0.0310525   0.7393188   0.0050955  )
        20           I   tau(  20) = (   0.0450322   0.2317154   0.4984260  )
        21           I   tau(  21) = (   0.4659128   0.7400570  -0.0009823  )
        22           I   tau(  22) = (   0.0279605   0.7344429   0.5091237  )
        23           I   tau(  23) = (   0.5376448   0.2351356   0.5027874  )
        24           I   tau(  24) = (   0.5388450   0.7406101   0.4959501  )
        25           I   tau(  25) = (   0.0337019  -0.0351957   0.2585051  )
        26           I   tau(  26) = (   0.4679908  -0.0121230   0.2538916  )
        27           I   tau(  27) = (  -0.0499134   0.4880016   0.2580616  )
        28           I   tau(  28) = (  -0.0460356  -0.0153908   0.7567335  )
        29           I   tau(  29) = (   0.5518393   0.4854463   0.2447820  )
        30           I   tau(  30) = (   0.0497000   0.4815504   0.7552438  )
        31           I   tau(  31) = (   0.5316216  -0.0249844   0.7519957  )
        32           I   tau(  32) = (   0.4552921   0.4743160   0.7433504  )
        33           C   tau(  33) = (   0.2349808   0.2556900   0.2476449  )
        34           C   tau(  34) = (   0.7633320   0.2566433   0.2750593  )
        35           C   tau(  35) = (   0.2472447   0.7364253   0.2998940  )
        36           C   tau(  36) = (   0.2572576   0.2542888   0.7291056  )
        37           C   tau(  37) = (   0.7489663   0.7953706   0.2504202  )
        38           C   tau(  38) = (   0.2551303   0.7748341   0.7467500  )
        39           C   tau(  39) = (   0.7339855   0.2562928   0.7529749  )
        40           C   tau(  40) = (   0.7596834   0.7606848   0.7318108  )
        41           N   tau(  41) = (   0.2041143   0.1975210   0.1682214  )
        42           N   tau(  42) = (   0.6935590   0.2399011   0.2009048  )
        43           N   tau(  43) = (   0.1673083   0.6880892   0.2559229  )
        44           N   tau(  44) = (   0.1861336   0.2356936   0.8015430  )
        45           N   tau(  45) = (   0.6689426   0.7446288   0.2094196  )
        46           N   tau(  46) = (   0.1849247   0.7310789   0.8084414  )
        47           N   tau(  47) = (   0.7030519   0.2028737   0.8355501  )
        48           N   tau(  48) = (   0.6876807   0.7521240   0.8053439  )
        49           N   tau(  49) = (   0.3152687   0.2346325   0.3090357  )
        50           N   tau(  50) = (   0.8454554   0.1968323   0.2936122  )
        51           N   tau(  51) = (   0.3445518   0.7319646   0.2658297  )
        52           N   tau(  52) = (   0.3379053   0.1934058   0.7085124  )
        53           N   tau(  53) = (   0.8327510   0.7508633   0.2908406  )
        54           N   tau(  54) = (   0.3236158   0.7228897   0.6897021  )
        55           N   tau(  55) = (   0.8147503   0.2317439   0.6936735  )
        56           N   tau(  56) = (   0.8378803   0.6946915   0.7187383  )
        57           H   tau(  57) = (   0.1909864   0.3273857   0.2642319  )
        58           H   tau(  58) = (   0.7526994   0.3254661   0.3252104  )
        59           H   tau(  59) = (   0.2320016   0.7843364   0.3696596  )
        60           H   tau(  60) = (   0.2486600   0.3261936   0.6831258  )
        61           H   tau(  61) = (   0.7461401   0.8809606   0.2508439  )
        62           H   tau(  62) = (   0.2563749   0.8603865   0.7416531  )
        63           H   tau(  63) = (   0.6894180   0.3264560   0.7319664  )
        64           H   tau(  64) = (   0.7542433   0.8275773   0.6782866  )
        65           H   tau(  65) = (   0.2408729   0.1295157   0.1472443  )
        66           H   tau(  66) = (   0.6985404   0.1768685   0.1509613  )
        67           H   tau(  67) = (   0.1758621   0.6376397   0.1934417  )
        68           H   tau(  68) = (   0.1891744   0.1706064   0.8487453  )
        69           H   tau(  69) = (   0.6626438   0.6642936   0.2099098  )
        70           H   tau(  70) = (   0.1740427   0.6515207   0.8117566  )
        71           H   tau(  71) = (   0.7407919   0.1370421   0.8615364  )
        72           H   tau(  72) = (   0.6878708   0.6911903   0.8578899  )
        73           H   tau(  73) = (   0.1404696   0.2194862   0.1237748  )
        74           H   tau(  74) = (   0.6325704   0.2916073   0.1927285  )
        75           H   tau(  75) = (   0.0951298   0.6933678   0.2898911  )
        76           H   tau(  76) = (   0.1262508   0.2882039   0.8114399  )
        77           H   tau(  77) = (   0.6083743   0.7855169   0.1766606  )
        78           H   tau(  78) = (   0.1348506   0.7755588   0.8525490  )
        79           H   tau(  79) = (   0.6395570   0.2278934   0.8781082  )
        80           H   tau(  80) = (   0.6287378   0.8065881   0.8086221  )
        81           H   tau(  81) = (   0.3610314   0.1689815   0.3002928  )
        82           H   tau(  82) = (   0.8626384   0.1309005   0.2515138  )
        83           H   tau(  83) = (   0.3654388   0.6930953   0.1987023  )
        84           H   tau(  84) = (   0.3517254   0.1243564   0.7469211  )
        85           H   tau(  85) = (   0.8461878   0.6714806   0.2890808  )
        86           H   tau(  86) = (   0.3334431   0.6430833   0.6947816  )
        87           H   tau(  87) = (   0.8601512   0.1665033   0.7074408  )
        88           H   tau(  88) = (   0.8471659   0.6294683   0.7643743  )
        89           H   tau(  89) = (   0.3321535   0.2848701   0.3692523  )
        90           H   tau(  90) = (   0.8964160   0.2149698   0.3531488  )
        91           H   tau(  91) = (   0.4014899   0.7733220   0.3043045  )
        92           H   tau(  92) = (   0.3897220   0.2137484   0.6503683  )
        93           H   tau(  93) = (   0.8911573   0.7976323   0.3196175  )
        94           H   tau(  94) = (   0.3746517   0.7624653   0.6419754  )
        95           H   tau(  95) = (   0.8319769   0.2791306   0.6313145  )
        96           H   tau(  96) = (   0.8905716   0.7058225   0.6589839  )

     number of k points=    32
                       cart. coord. in units 2pi/alat
        k(    1) = (   0.1250000   0.1238096   0.1255773), wk =   0.0625000
        k(    2) = (   0.1250000   0.1238096   0.3767318), wk =   0.0625000
        k(    3) = (   0.1250000   0.3714289   0.1255773), wk =   0.0625000
        k(    4) = (   0.1250000   0.3714289   0.3767318), wk =   0.0625000
        k(    5) = (   0.3750000   0.1238096   0.1255773), wk =   0.0625000
        k(    6) = (   0.3750000   0.1238096   0.3767318), wk =   0.0625000
        k(    7) = (   0.3750000   0.3714289   0.1255773), wk =   0.0625000
        k(    8) = (   0.3750000   0.3714289   0.3767318), wk =   0.0625000
        k(    9) = (  -0.1250000  -0.1238096   0.1255773), wk =   0.0625000
        k(   10) = (  -0.1250000   0.1238096  -0.1255773), wk =   0.0625000
        k(   11) = (   0.1250000  -0.1238096  -0.1255773), wk =   0.0625000
        k(   12) = (  -0.1250000  -0.1238096   0.3767318), wk =   0.0625000
        k(   13) = (  -0.1250000   0.1238096  -0.3767318), wk =   0.0625000
        k(   14) = (   0.1250000  -0.1238096  -0.3767318), wk =   0.0625000
        k(   15) = (  -0.1250000  -0.3714289   0.1255773), wk =   0.0625000
        k(   16) = (  -0.1250000   0.3714289  -0.1255773), wk =   0.0625000
        k(   17) = (   0.1250000  -0.3714289  -0.1255773), wk =   0.0625000
        k(   18) = (  -0.1250000  -0.3714289   0.3767318), wk =   0.0625000
        k(   19) = (  -0.1250000   0.3714289  -0.3767318), wk =   0.0625000
        k(   20) = (   0.1250000  -0.3714289  -0.3767318), wk =   0.0625000
        k(   21) = (  -0.3750000  -0.1238096   0.1255773), wk =   0.0625000
        k(   22) = (  -0.3750000   0.1238096  -0.1255773), wk =   0.0625000
        k(   23) = (   0.3750000  -0.1238096  -0.1255773), wk =   0.0625000
        k(   24) = (  -0.3750000  -0.1238096   0.3767318), wk =   0.0625000
        k(   25) = (  -0.3750000   0.1238096  -0.3767318), wk =   0.0625000
        k(   26) = (   0.3750000  -0.1238096  -0.3767318), wk =   0.0625000
        k(   27) = (  -0.3750000  -0.3714289   0.1255773), wk =   0.0625000
        k(   28) = (  -0.3750000   0.3714289  -0.1255773), wk =   0.0625000
        k(   29) = (   0.3750000  -0.3714289  -0.1255773), wk =   0.0625000
        k(   30) = (  -0.3750000  -0.3714289   0.3767318), wk =   0.0625000
        k(   31) = (  -0.3750000   0.3714289  -0.3767318), wk =   0.0625000
        k(   32) = (   0.3750000  -0.3714289  -0.3767318), wk =   0.0625000

     Dense  grid:  2483137 G-vectors     FFT dimensions: ( 180, 180, 180)

     Estimated max dynamical RAM per process >       1.82 GB

     Estimated total dynamical RAM >      58.20 GB

     Initial potential from superposition of free atoms

     starting charge  431.97851, renormalised to  432.00000
     Starting wfcs are  304 randomized atomic wfcs
     Checking if some PAW data can be deallocated... 

     total cpu time spent up to now is      929.2 secs

     Self-consistent Calculation

     iteration #  1     ecut=   120.00 Ry     beta= 0.70
     Davidson diagonalization with overlap
     ethr =  1.00E-02,  avg # of iterations =  2.0

     total cpu time spent up to now is     3059.3 secs

     total energy              =  -16705.01787842 Ry
     Harris-Foulkes estimate   =  -16709.28990631 Ry
     estimated scf accuracy    <       6.76474916 Ry

     iteration #  2     ecut=   120.00 Ry     beta= 0.70
     Davidson diagonalization with overlap
     ethr =  1.57E-03,  avg # of iterations =  4.0

     total cpu time spent up to now is     5772.7 secs

     total energy              =  -16706.55727649 Ry
     Harris-Foulkes estimate   =  -16708.64785507 Ry
     estimated scf accuracy    <       3.89768302 Ry

     iteration #  3     ecut=   120.00 Ry     beta= 0.70
     Davidson diagonalization with overlap
     ethr =  9.02E-04,  avg # of iterations =  3.0

     total cpu time spent up to now is     7769.3 secs

     total energy              =  -16707.42145856 Ry
     Harris-Foulkes estimate   =  -16707.48792328 Ry
     estimated scf accuracy    <       0.14488280 Ry

     iteration #  4     ecut=   120.00 Ry     beta= 0.70
     Davidson diagonalization with overlap
     ethr =  3.35E-05,  avg # of iterations =  4.0

     total cpu time spent up to now is    11120.6 secs

     total energy              =  -16707.46499049 Ry
     Harris-Foulkes estimate   =  -16707.48472940 Ry
     estimated scf accuracy    <       0.03921949 Ry

     iteration #  5     ecut=   120.00 Ry     beta= 0.70
     Davidson diagonalization with overlap
     ethr =  9.08E-06,  avg # of iterations =  3.0

     total cpu time spent up to now is    13573.6 secs

     total energy              =  -16707.47247023 Ry
     Harris-Foulkes estimate   =  -16707.47360685 Ry
     estimated scf accuracy    <       0.00213063 Ry

     iteration #  6     ecut=   120.00 Ry     beta= 0.70
     Davidson diagonalization with overlap
     ethr =  4.93E-07,  avg # of iterations =  4.0

     total cpu time spent up to now is    16904.5 secs

     total energy              =  -16707.47306885 Ry
     Harris-Foulkes estimate   =  -16707.47358608 Ry
     estimated scf accuracy    <       0.00113438 Ry

     iteration #  7     ecut=   120.00 Ry     beta= 0.70
     Davidson diagonalization with overlap
     ethr =  2.63E-07,  avg # of iterations =  4.0

     total cpu time spent up to now is    19417.5 secs

     total energy              =  -16707.47331431 Ry
     Harris-Foulkes estimate   =  -16707.47335358 Ry
     estimated scf accuracy    <       0.00008925 Ry

     iteration #  8     ecut=   120.00 Ry     beta= 0.70
     Davidson diagonalization with overlap
     ethr =  2.07E-08,  avg # of iterations =  4.0

     total cpu time spent up to now is    22068.6 secs

     total energy              =  -16707.47333721 Ry
     Harris-Foulkes estimate   =  -16707.47334616 Ry
     estimated scf accuracy    <       0.00001985 Ry

     iteration #  9     ecut=   120.00 Ry     beta= 0.70
     Davidson diagonalization with overlap
     ethr =  4.59E-09,  avg # of iterations =  4.0

     total cpu time spent up to now is    24813.6 secs

     total energy              =  -16707.47334146 Ry
     Harris-Foulkes estimate   =  -16707.47334241 Ry
     estimated scf accuracy    <       0.00000200 Ry

     iteration # 10     ecut=   120.00 Ry     beta= 0.70
     Davidson diagonalization with overlap
     ethr =  4.63E-10,  avg # of iterations =  4.0

     total cpu time spent up to now is    27406.4 secs

     total energy              =  -16707.47334195 Ry
     Harris-Foulkes estimate   =  -16707.47334208 Ry
     estimated scf accuracy    <       0.00000029 Ry

     iteration # 11     ecut=   120.00 Ry     beta= 0.70
     Davidson diagonalization with overlap
     ethr =  6.72E-11,  avg # of iterations =  4.0

     total cpu time spent up to now is    30324.8 secs

     End of self-consistent calculation

          k = 0.1250 0.1238 0.1256 (310420 PWs)   bands (ev):

   -17.9313 -17.9171 -17.8793 -17.8719 -17.8523 -17.8397 -17.8356 -17.8055
   -15.7308 -15.7023 -15.6563 -15.6488 -15.6264 -15.6186 -15.6114 -15.5619
   -14.3420 -14.3381 -14.3086 -14.3052 -14.2983 -14.2928 -14.2840 -14.2828
   -14.2791 -14.2736 -14.2733 -14.2682 -14.2605 -14.2573 -14.2534 -14.2500
   -14.2480 -14.2471 -14.2470 -14.2465 -14.2452 -14.2436 -14.2413 -14.2400
   -14.2382 -14.2365 -14.2358 -14.2307 -14.2306 -14.2206 -14.2204 -14.2152
   -14.2141 -14.2100 -14.2079 -14.2035 -14.2021 -14.1829 -14.1726 -14.1639
    -9.8037  -9.7766  -9.7208  -9.6836  -9.6681  -9.6300  -9.5959  -9.5854
    -9.4844  -9.4589  -9.4050  -9.3753  -9.3306  -9.2926  -9.2634  -9.2439
    -9.2289  -9.1914  -9.1756  -9.1583  -9.1320  -9.1085  -9.0967  -9.0778
    -9.0620  -9.0323  -8.9962  -8.9828  -8.9641  -8.9518  -8.9074  -8.8457
    -7.7742  -7.7491  -7.6897  -7.6791  -7.6645  -7.6588  -7.6475  -7.6283
    -7.1081  -7.0619  -7.0599  -7.0396  -7.0165  -7.0121  -6.9869  -6.9375
    -5.8779  -5.4802  -5.4535  -5.4317  -5.4049  -5.3780  -5.3524  -5.3410
    -5.3190  -5.3146  -5.3047  -5.2826  -5.0481  -5.0015  -4.9816  -4.5971
    -3.8895  -3.8548  -3.8317  -3.8156  -3.7976  -3.7886  -3.7739  -3.7550
    -3.3335  -3.3192  -3.2850  -3.2766  -3.2625  -3.2488  -3.2395  -3.2017
    -0.8685  -0.8372  -0.8138  -0.7685  -0.7332  -0.7157  -0.6874  -0.6405
    -0.6255  -0.5873  -0.5275  -0.4996  -0.1955  -0.1586  -0.1262  -0.1040
    -0.0801  -0.0557  -0.0189   0.0052   0.3906   0.4166   0.4596   0.4732
     0.4912   0.5080   0.5315   0.5619   0.5806   0.6330   0.6790   0.7370
     0.7843   0.8009   0.8361   0.8667   0.9008   0.9153   0.9349   0.9800
     0.9885   1.0024   1.0224   1.0435   1.0527   1.0688   1.0843   1.0921
     1.1103   1.1368   1.1546   1.1718   1.1851   1.2035   1.2330   1.2423
     1.2599   1.2708   1.2813   1.2995   1.3158   1.3284   1.3479   1.4008
     1.4184   1.4502   1.4655   1.4748   1.5057   1.5183   1.5823   1.5998
     1.6388   1.6988   1.7244   1.7431   1.7880   1.8384   1.8600   2.1002

          k = 0.1250 0.1238 0.3767 (310379 PWs)   bands (ev):

   -17.9313 -17.9171 -17.8793 -17.8719 -17.8523 -17.8397 -17.8357 -17.8055
   -15.7308 -15.7023 -15.6562 -15.6488 -15.6265 -15.6182 -15.6118 -15.5619
   -14.3420 -14.3380 -14.3086 -14.3052 -14.2983 -14.2923 -14.2839 -14.2828
   -14.2785 -14.2740 -14.2732 -14.2681 -14.2605 -14.2573 -14.2538 -14.2500
   -14.2483 -14.2471 -14.2470 -14.2465 -14.2452 -14.2437 -14.2413 -14.2400
   -14.2382 -14.2365 -14.2360 -14.2307 -14.2306 -14.2207 -14.2204 -14.2152
   -14.2141 -14.2100 -14.2079 -14.2034 -14.2021 -14.1829 -14.1726 -14.1639
    -9.7881  -9.7688  -9.7249  -9.6753  -9.6670  -9.6508  -9.6134  -9.5979
    -9.4838  -9.4372  -9.4027  -9.3578  -9.3508  -9.3076  -9.2875  -9.2627
    -9.2255  -9.2027  -9.1615  -9.1252  -9.1127  -9.0967  -9.0873  -9.0698
    -9.0545  -9.0312  -9.0055  -8.9965  -8.9662  -8.9546  -8.9134  -8.8506
    -7.7743  -7.7491  -7.6898  -7.6783  -7.6641  -7.6601  -7.6481  -7.6281
    -7.1081  -7.0618  -7.0598  -7.0399  -7.0164  -7.0122  -6.9869  -6.9374
    -5.7623  -5.5864  -5.4528  -5.3872  -5.3614  -5.3502  -5.3400  -5.3255
    -5.3179  -5.3086  -5.2854  -5.2753  -5.1621  -5.1209  -4.9068  -4.7278
    -3.8892  -3.8524  -3.8316  -3.8182  -3.7986  -3.7859  -3.7758  -3.7552
    -3.3334  -3.3190  -3.2848  -3.2771  -3.2625  -3.2482  -3.2402  -3.2017
    -0.8469  -0.8098  -0.7604  -0.7052  -0.6874  -0.6518  -0.6243  -0.5658
    -0.4012  -0.3683  -0.2818  -0.2180  -0.1695  -0.1436  -0.1229  -0.0915
    -0.0670  -0.0536  -0.0373   0.0043   0.1670   0.2338   0.3017   0.3653
     0.4250   0.4465   0.4649   0.5106   0.5186   0.5491   0.5701   0.5985
     0.6329   0.7189   0.8155   0.8318   0.8871   0.9032   0.9130   0.9557
     0.9692   0.9842   1.0090   1.0336   1.0468   1.0638   1.0892   1.1046
     1.1268   1.1398   1.1593   1.1754   1.2094   1.2138   1.2389   1.2561
     1.2629   1.2798   1.3061   1.3116   1.3226   1.3419   1.3645   1.3760
     1.4053   1.4306   1.4470   1.4664   1.5082   1.5180   1.5407   1.5697
     1.6222   1.6460   1.6685   1.6849   1.7358   1.7536   1.8205   1.9561

          k = 0.1250 0.3714 0.1256 (310281 PWs)   bands (ev):

   -17.9313 -17.9171 -17.8793 -17.8719 -17.8523 -17.8397 -17.8356 -17.8055
   -15.7308 -15.7023 -15.6563 -15.6488 -15.6264 -15.6186 -15.6114 -15.5619
   -14.3420 -14.3379 -14.3086 -14.3052 -14.2983 -14.2925 -14.2843 -14.2824
   -14.2790 -14.2736 -14.2724 -14.2691 -14.2610 -14.2573 -14.2539 -14.2500
   -14.2476 -14.2471 -14.2470 -14.2465 -14.2452 -14.2435 -14.2413 -14.2400
   -14.2382 -14.2365 -14.2358 -14.2307 -14.2306 -14.2208 -14.2204 -14.2152
   -14.2141 -14.2100 -14.2079 -14.2035 -14.2022 -14.1829 -14.1726 -14.1639
    -9.7951  -9.7829  -9.7198  -9.6842  -9.6669  -9.6301  -9.5975  -9.5865
    -9.4626  -9.4451  -9.3999  -9.3863  -9.3624  -9.3201  -9.3012  -9.2508
    -9.2300  -9.1944  -9.1666  -9.1277  -9.1091  -9.0987  -9.0800  -9.0583
    -9.0526  -9.0368  -9.0073  -8.9927  -8.9599  -8.9550  -8.9140  -8.8566
    -7.7733  -7.7488  -7.6859  -7.6790  -7.6657  -7.6610  -7.6477  -7.6288
    -7.1080  -7.0626  -7.0589  -7.0390  -7.0173  -7.0123  -6.9869  -6.9375
    -5.7601  -5.5692  -5.4529  -5.3876  -5.3636  -5.3540  -5.3408  -5.3284
    -5.3172  -5.3060  -5.2969  -5.2731  -5.1585  -5.1186  -4.9164  -4.7398
    -3.8884  -3.8537  -3.8301  -3.8168  -3.7991  -3.7885  -3.7740  -3.7555
    -3.3334  -3.3190  -3.2847  -3.2752  -3.2642  -3.2492  -3.2396  -3.2021
    -0.8535  -0.8153  -0.7304  -0.7190  -0.6738  -0.6036  -0.5765  -0.5395
    -0.3955  -0.3630  -0.2975  -0.2164  -0.1845  -0.1363  -0.1269  -0.0942
    -0.0865  -0.0640  -0.0208   0.0005   0.1959   0.2522   0.3190   0.3706
     0.4112   0.4710   0.4815   0.5075   0.5247   0.5366   0.5464   0.6184
     0.6465   0.6934   0.7561   0.7780   0.8291   0.8587   0.9147   0.9337
     0.9631   1.0023   1.0154   1.0373   1.0546   1.0661   1.0809   1.1002
     1.1198   1.1323   1.1615   1.1814   1.1956   1.2196   1.2362   1.2609
     1.2770   1.2860   1.2970   1.3068   1.3361   1.3562   1.3769   1.3930
     1.4076   1.4320   1.4467   1.4649   1.4886   1.5198   1.5417   1.5557
     1.5836   1.6142   1.6296   1.6900   1.7130   1.7590   1.8468   1.9267

          k = 0.1250 0.3714 0.3767 (310376 PWs)   bands (ev):

   -17.9313 -17.9171 -17.8793 -17.8719 -17.8523 -17.8397 -17.8357 -17.8055
   -15.7308 -15.7023 -15.6562 -15.6488 -15.6265 -15.6182 -15.6118 -15.5619
   -14.3420 -14.3378 -14.3086 -14.3052 -14.2983 -14.2920 -14.2841 -14.2823
   -14.2784 -14.2737 -14.2729 -14.2687 -14.2610 -14.2573 -14.2543 -14.2500
   -14.2480 -14.2471 -14.2470 -14.2465 -14.2452 -14.2436 -14.2413 -14.2400
   -14.2382 -14.2365 -14.2360 -14.2307 -14.2306 -14.2210 -14.2204 -14.2152
   -14.2141 -14.2100 -14.2079 -14.2035 -14.2022 -14.1829 -14.1726 -14.1639
    -9.7840  -9.7695  -9.7244  -9.6734  -9.6681  -9.6514  -9.6135  -9.5986
    -9.4625  -9.4267  -9.4020  -9.3792  -9.3554  -9.3296  -9.3172  -9.2773
    -9.2522  -9.1651  -9.1376  -9.1126  -9.1051  -9.0919  -9.0726  -9.0688
    -9.0561  -9.0274  -9.0111  -8.9997  -8.9618  -8.9527  -8.9217  -8.8614
    -7.7733  -7.7488  -7.6858  -7.6782  -7.6665  -7.6604  -7.6490  -7.6286
    -7.1080  -7.0627  -7.0589  -7.0391  -7.0172  -7.0123  -6.9869  -6.9375
    -5.6488  -5.4931  -5.4628  -5.4318  -5.3775  -5.3594  -5.3452  -5.3361
    -5.3127  -5.3078  -5.2891  -5.2402  -5.2196  -5.0661  -5.0254  -4.8679
    -3.8880  -3.8518  -3.8285  -3.8192  -3.8009  -3.7858  -3.7759  -3.7552
    -3.3334  -3.3189  -3.2849  -3.2754  -3.2643  -3.2488  -3.2402  -3.2021
    -0.8242  -0.7134  -0.6674  -0.6033  -0.4358  -0.4169  -0.3672  -0.3436
    -0.3076  -0.2781  -0.2531  -0.2347  -0.1481  -0.1374  -0.1255  -0.0922
    -0.0721  -0.0525  -0.0324  -0.0023   0.1348   0.2035   0.2373   0.2607
     0.3121   0.3181   0.3363   0.3850   0.4711   0.5037   0.5346   0.5575
     0.6040   0.6604   0.7285   0.7342   0.7937   0.8256   0.8312   0.8571
     0.8735   0.9297   0.9567   0.9929   1.0004   1.0255   1.0554   1.0819
     1.1269   1.1334   1.1561   1.1762   1.2148   1.2293   1.2458   1.2597
     1.2894   1.3006   1.3133   1.3312   1.3518   1.3627   1.3769   1.3882
     1.3991   1.4274   1.4410   1.4562   1.4853   1.4984   1.5250   1.5474
     1.5649   1.5967   1.6106   1.6607   1.6826   1.6879   1.7241   1.8112

          k = 0.3750 0.1238 0.1256 (310433 PWs)   bands (ev):

   -17.9310 -17.9175 -17.8793 -17.8719 -17.8523 -17.8398 -17.8356 -17.8056
   -15.7293 -15.7039 -15.6562 -15.6488 -15.6264 -15.6186 -15.6115 -15.5619
   -14.3418 -14.3381 -14.3086 -14.3052 -14.2983 -14.2928 -14.2839 -14.2831
   -14.2787 -14.2733 -14.2728 -14.2684 -14.2612 -14.2573 -14.2534 -14.2500
   -14.2480 -14.2470 -14.2470 -14.2465 -14.2452 -14.2441 -14.2413 -14.2400
   -14.2382 -14.2365 -14.2353 -14.2307 -14.2306 -14.2206 -14.2204 -14.2152
   -14.2141 -14.2100 -14.2079 -14.2034 -14.2026 -14.1829 -14.1726 -14.1639
    -9.7773  -9.7619  -9.7253  -9.7139  -9.6779  -9.6289  -9.5994  -9.5900
    -9.4933  -9.4568  -9.3975  -9.3613  -9.3451  -9.3131  -9.2612  -9.2411
    -9.2196  -9.1922  -9.1692  -9.1625  -9.1322  -9.1165  -9.0998  -9.0751
    -9.0335  -9.0150  -8.9958  -8.9820  -8.9662  -8.9455  -8.9169  -8.8641
    -7.7682  -7.7563  -7.6897  -7.6785  -7.6645  -7.6596  -7.6483  -7.6285
    -7.1074  -7.0620  -7.0598  -7.0394  -7.0163  -7.0123  -6.9867  -6.9375
    -5.7623  -5.5875  -5.4318  -5.3991  -5.3683  -5.3484  -5.3437  -5.3190
    -5.3165  -5.3059  -5.2868  -5.2772  -5.1706  -5.1245  -4.8953  -4.7312
    -3.8894  -3.8550  -3.8310  -3.8155  -3.7965  -3.7902  -3.7745  -3.7553
    -3.3335  -3.3190  -3.2838  -3.2743  -3.2604  -3.2506  -3.2428  -3.2032
    -0.8231  -0.8132  -0.7757  -0.7389  -0.7082  -0.6534  -0.6368  -0.5980
    -0.4297  -0.3395  -0.2426  -0.1997  -0.1615  -0.1387  -0.1137  -0.0972
    -0.0687  -0.0363  -0.0253  -0.0023   0.1326   0.2307   0.3291   0.3960
     0.4402   0.4666   0.4827   0.5079   0.5217   0.5558   0.5701   0.6159
     0.6750   0.6930   0.7988   0.8337   0.8508   0.8752   0.9136   0.9490
     0.9656   0.9912   1.0074   1.0287   1.0443   1.0730   1.0898   1.0982
     1.1105   1.1452   1.1557   1.1896   1.2042   1.2204   1.2249   1.2542
     1.2606   1.2850   1.2937   1.3168   1.3251   1.3543   1.3693   1.3937
     1.4256   1.4471   1.4578   1.4832   1.5035   1.5200   1.5551   1.5869
     1.6169   1.6289   1.6475   1.6718   1.6951   1.7241   1.8317   1.9079

          k = 0.3750 0.1238 0.3767 (310374 PWs)   bands (ev):

   -17.9310 -17.9175 -17.8793 -17.8719 -17.8523 -17.8397 -17.8357 -17.8056
   -15.7293 -15.7039 -15.6562 -15.6488 -15.6264 -15.6182 -15.6118 -15.5619
   -14.3418 -14.3380 -14.3086 -14.3052 -14.2983 -14.2923 -14.2838 -14.2830
   -14.2781 -14.2740 -14.2725 -14.2683 -14.2612 -14.2573 -14.2538 -14.2500
   -14.2483 -14.2470 -14.2470 -14.2465 -14.2452 -14.2442 -14.2413 -14.2400
   -14.2382 -14.2365 -14.2355 -14.2307 -14.2306 -14.2207 -14.2204 -14.2152
   -14.2141 -14.2100 -14.2079 -14.2033 -14.2026 -14.1829 -14.1726 -14.1639
    -9.7675  -9.7529  -9.7214  -9.6975  -9.6810  -9.6515  -9.6191  -9.6061
    -9.4734  -9.4396  -9.4114  -9.3779  -9.3378  -9.3146  -9.2927  -9.2684
    -9.2060  -9.1939  -9.1648  -9.1278  -9.1148  -9.0966  -9.0895  -9.0704
    -9.0333  -9.0260  -9.0052  -8.9805  -8.9694  -8.9479  -8.9194  -8.8713
    -7.7682  -7.7558  -7.6898  -7.6773  -7.6628  -7.6616  -7.6499  -7.6292
    -7.1074  -7.0618  -7.0596  -7.0397  -7.0162  -7.0123  -6.9867  -6.9375
    -5.6510  -5.4971  -5.4632  -5.4296  -5.3987  -5.3556  -5.3432  -5.3262
    -5.3170  -5.3069  -5.2871  -5.2726  -5.1957  -5.0505  -5.0123  -4.8615
    -3.8890  -3.8524  -3.8310  -3.8179  -3.7968  -3.7881  -3.7766  -3.7557
    -3.3335  -3.3189  -3.2833  -3.2747  -3.2603  -3.2499  -3.2433  -3.2030
    -0.7924  -0.7782  -0.7130  -0.6795  -0.4808  -0.4350  -0.4114  -0.3444
    -0.3236  -0.2658  -0.2202  -0.1880  -0.1482  -0.1303  -0.1160  -0.0783
    -0.0626  -0.0451  -0.0171  -0.0027   0.1139   0.1838   0.2245   0.2564
     0.3114   0.3239   0.3831   0.4210   0.4539   0.4703   0.5178   0.5276
     0.6494   0.7105   0.7582   0.7787   0.8062   0.8352   0.8636   0.8920
     0.9185   0.9447   0.9723   0.9952   1.0119   1.0498   1.0597   1.0816
     1.1090   1.1246   1.1528   1.1768   1.1916   1.2209   1.2301   1.2612
     1.2725   1.2839   1.3109   1.3319   1.3390   1.3515   1.3621   1.3937
     1.4024   1.4240   1.4427   1.4813   1.4909   1.5119   1.5303   1.5555
     1.5740   1.5994   1.6300   1.6589   1.6740   1.6964   1.7426   1.7783

          k = 0.3750 0.3714 0.1256 (310401 PWs)   bands (ev):

   -17.9310 -17.9175 -17.8793 -17.8719 -17.8523 -17.8398 -17.8356 -17.8056
   -15.7293 -15.7039 -15.6562 -15.6488 -15.6264 -15.6186 -15.6115 -15.5619
   -14.3418 -14.3379 -14.3086 -14.3052 -14.2983 -14.2924 -14.2842 -14.2826
   -14.2787 -14.2728 -14.2724 -14.2692 -14.2617 -14.2573 -14.2538 -14.2500
   -14.2476 -14.2471 -14.2470 -14.2465 -14.2452 -14.2440 -14.2413 -14.2400
   -14.2382 -14.2365 -14.2353 -14.2307 -14.2306 -14.2209 -14.2204 -14.2152
   -14.2141 -14.2100 -14.2079 -14.2034 -14.2027 -14.1829 -14.1726 -14.1639
    -9.7732  -9.7634  -9.7252  -9.7118  -9.6783  -9.6300  -9.5988  -9.5899
    -9.4689  -9.4476  -9.4079  -9.3931  -9.3492  -9.3238  -9.2964  -9.2444
    -9.2225  -9.1986  -9.1649  -9.1312  -9.1141  -9.1023  -9.0887  -9.0629
    -9.0339  -9.0167  -9.0033  -8.9819  -8.9672  -8.9438  -8.9244  -8.8727
    -7.7673  -7.7559  -7.6859  -7.6786  -7.6645  -7.6626  -7.6484  -7.6290
    -7.1074  -7.0626  -7.0588  -7.0387  -7.0172  -7.0124  -6.9867  -6.9376
    -5.6489  -5.4902  -5.4519  -5.4284  -5.3998  -5.3607  -5.3477  -5.3228
    -5.3184  -5.3064  -5.2834  -5.2570  -5.2102  -5.0528  -5.0301  -4.8723
    -3.8889  -3.8538  -3.8294  -3.8165  -3.7979  -3.7900  -3.7740  -3.7556
    -3.3335  -3.3190  -3.2832  -3.2739  -3.2616  -3.2508  -3.2427  -3.2035
    -0.8079  -0.7183  -0.6682  -0.6285  -0.5387  -0.4457  -0.4041  -0.3506
    -0.2818  -0.2420  -0.2172  -0.1765  -0.1523  -0.1247  -0.0989  -0.0857
    -0.0753  -0.0458  -0.0311  -0.0082   0.0571   0.1846   0.2274   0.2476
     0.3300   0.3544   0.4175   0.4571   0.4790   0.4959   0.5349   0.5514
     0.5903   0.6910   0.6986   0.7272   0.7854   0.8219   0.8499   0.8699
     0.9066   0.9238   0.9557   0.9807   1.0202   1.0534   1.0729   1.0913
     1.0942   1.1212   1.1308   1.1628   1.1800   1.2208   1.2250   1.2625
     1.2847   1.2915   1.3209   1.3280   1.3342   1.3628   1.3829   1.3947
     1.4199   1.4357   1.4544   1.4760   1.4920   1.5146   1.5327   1.5506
     1.5776   1.5898   1.6250   1.6395   1.6494   1.6760   1.7091   1.7281

          k = 0.3750 0.3714 0.3767 (310373 PWs)   bands (ev):

   -17.9310 -17.9175 -17.8793 -17.8719 -17.8523 -17.8397 -17.8357 -17.8056
   -15.7293 -15.7039 -15.6562 -15.6488 -15.6264 -15.6182 -15.6118 -15.5619
   -14.3417 -14.3378 -14.3086 -14.3052 -14.2983 -14.2920 -14.2841 -14.2826
   -14.2780 -14.2734 -14.2725 -14.2687 -14.2618 -14.2573 -14.2542 -14.2500
   -14.2480 -14.2470 -14.2470 -14.2465 -14.2452 -14.2441 -14.2413 -14.2400
   -14.2382 -14.2365 -14.2356 -14.2307 -14.2306 -14.2210 -14.2204 -14.2152
   -14.2141 -14.2100 -14.2079 -14.2034 -14.2027 -14.1829 -14.1726 -14.1639
    -9.7664  -9.7504  -9.7220  -9.6959  -9.6826  -9.6510  -9.6180  -9.6047
    -9.4499  -9.4363  -9.3995  -9.3781  -9.3620  -9.3511  -9.3310  -9.2860
    -9.2040  -9.1656  -9.1394  -9.1207  -9.1023  -9.0916  -9.0804  -9.0732
    -9.0413  -9.0158  -9.0020  -8.9858  -8.9700  -8.9495  -8.9252  -8.8788
    -7.7673  -7.7555  -7.6859  -7.6774  -7.6655  -7.6619  -7.6503  -7.6295
    -7.1074  -7.0626  -7.0587  -7.0388  -7.0172  -7.0124  -6.9866  -6.9375
    -5.5424  -5.4340  -5.4120  -5.3960  -5.3754  -5.3501  -5.3429  -5.3224
    -5.3180  -5.3083  -5.2950  -5.2772  -5.2022  -5.1622  -5.1424  -4.9995
    -3.8884  -3.8517  -3.8280  -3.8189  -3.7988  -3.7879  -3.7762  -3.7557
    -3.3336  -3.3190  -3.2832  -3.2738  -3.2616  -3.2503  -3.2430  -3.2034
    -0.5506  -0.5041  -0.4480  -0.4199  -0.3966  -0.3466  -0.3169  -0.2941
    -0.2848  -0.2298  -0.2084  -0.1803  -0.1435  -0.1262  -0.1090  -0.0809
    -0.0644  -0.0488  -0.0260  -0.0033   0.0604   0.1608   0.1753   0.2005
     0.2510   0.2691   0.2838   0.3164   0.3491   0.3986   0.4212   0.4874
     0.6348   0.7075   0.7362   0.7577   0.8002   0.8089   0.8263   0.8485
     0.8661   0.8941   0.9043   0.9249   0.9628   0.9769   1.0069   1.0209
     1.0481   1.0652   1.0939   1.1012   1.1246   1.1442   1.1533   1.1711
     1.2790   1.2946   1.3384   1.3437   1.3599   1.3764   1.3863   1.3935
     1.4163   1.4240   1.4484   1.4681   1.4826   1.5061   1.5219   1.5331
     1.5464   1.5722   1.5962   1.6055   1.6270   1.6573   1.6778   1.6905

          k =-0.1250-0.1238 0.1256 (310420 PWs)   bands (ev):

   -17.9313 -17.9171 -17.8793 -17.8719 -17.8523 -17.8397 -17.8356 -17.8055
   -15.7308 -15.7023 -15.6563 -15.6488 -15.6264 -15.6186 -15.6114 -15.5619
   -14.3420 -14.3381 -14.3086 -14.3052 -14.2983 -14.2928 -14.2840 -14.2828
   -14.2791 -14.2736 -14.2733 -14.2682 -14.2605 -14.2573 -14.2534 -14.2500
   -14.2480 -14.2471 -14.2470 -14.2465 -14.2452 -14.2436 -14.2413 -14.2400
   -14.2382 -14.2365 -14.2358 -14.2307 -14.2306 -14.2206 -14.2204 -14.2152
   -14.2141 -14.2100 -14.2079 -14.2035 -14.2021 -14.1829 -14.1726 -14.1639
    -9.8037  -9.7768  -9.7203  -9.6834  -9.6674  -9.6309  -9.5960  -9.5863
    -9.4890  -9.4562  -9.4033  -9.3714  -9.3283  -9.2978  -9.2669  -9.2394
    -9.2283  -9.1903  -9.1710  -9.1684  -9.1297  -9.1110  -9.0944  -9.0774
    -9.0638  -9.0315  -8.9941  -8.9819  -8.9672  -8.9510  -8.9079  -8.8450
    -7.7742  -7.7494  -7.6896  -7.6794  -7.6643  -7.6589  -7.6474  -7.6279
    -7.1080  -7.0621  -7.0599  -7.0395  -7.0165  -7.0121  -6.9869  -6.9375
    -5.8778  -5.4814  -5.4521  -5.4291  -5.4101  -5.3783  -5.3526  -5.3408
    -5.3189  -5.3135  -5.3056  -5.2799  -5.0477  -5.0012  -4.9825  -4.5974
    -3.8896  -3.8548  -3.8313  -3.8160  -3.7980  -3.7881  -3.7741  -3.7549
    -3.3336  -3.3193  -3.2847  -3.2768  -3.2624  -3.2488  -3.2394  -3.2017
    -0.8778  -0.8460  -0.7986  -0.7641  -0.7332  -0.7103  -0.6757  -0.6479
    -0.6268  -0.5939  -0.5305  -0.5017  -0.1964  -0.1527  -0.1231  -0.1071
    -0.0793  -0.0587  -0.0196   0.0052   0.3932   0.4205   0.4593   0.4761
     0.4943   0.5063   0.5224   0.5660   0.5858   0.6303   0.6693   0.7435
     0.7712   0.8077   0.8255   0.8680   0.8945   0.9159   0.9353   0.9724
     0.9911   1.0071   1.0147   1.0353   1.0489   1.0684   1.0840   1.1120
     1.1225   1.1356   1.1608   1.1772   1.1878   1.2092   1.2337   1.2405
     1.2537   1.2649   1.2843   1.3026   1.3118   1.3280   1.3575   1.3982
     1.4257   1.4410   1.4544   1.4787   1.5028   1.5270   1.5792   1.5992
     1.6418   1.6986   1.7244   1.7385   1.7893   1.8314   1.8648   2.1011

          k =-0.1250 0.1238-0.1256 (310420 PWs)   bands (ev):

   -17.9313 -17.9171 -17.8793 -17.8719 -17.8523 -17.8397 -17.8356 -17.8055
   -15.7308 -15.7023 -15.6563 -15.6488 -15.6264 -15.6186 -15.6114 -15.5619
   -14.3420 -14.3381 -14.3086 -14.3052 -14.2983 -14.2928 -14.2840 -14.2828
   -14.2791 -14.2736 -14.2733 -14.2682 -14.2605 -14.2573 -14.2534 -14.2500
   -14.2480 -14.2471 -14.2470 -14.2465 -14.2452 -14.2436 -14.2413 -14.2400
   -14.2382 -14.2365 -14.2358 -14.2307 -14.2306 -14.2206 -14.2204 -14.2152
   -14.2141 -14.2100 -14.2079 -14.2035 -14.2021 -14.1829 -14.1726 -14.1639
    -9.8044  -9.7758  -9.7214  -9.6832  -9.6665  -9.6305  -9.5975  -9.5857
    -9.4851  -9.4547  -9.4091  -9.3770  -9.3301  -9.2831  -9.2658  -9.2454
    -9.2261  -9.2023  -9.1744  -9.1572  -9.1262  -9.1118  -9.0963  -9.0794
    -9.0631  -9.0289  -8.9983  -8.9788  -8.9680  -8.9504  -8.9078  -8.8454
    -7.7741  -7.7492  -7.6895  -7.6793  -7.6643  -7.6591  -7.6475  -7.6284
    -7.1080  -7.0621  -7.0599  -7.0395  -7.0164  -7.0121  -6.9869  -6.9375
    -5.8777  -5.4815  -5.4539  -5.4311  -5.4104  -5.3778  -5.3526  -5.3383
    -5.3180  -5.3147  -5.3030  -5.2797  -5.0485  -5.0008  -4.9833  -4.5980
    -3.8893  -3.8548  -3.8314  -3.8158  -3.7981  -3.7882  -3.7742  -3.7550
    -3.3335  -3.3193  -3.2847  -3.2772  -3.2623  -3.2487  -3.2394  -3.2018
    -0.8565  -0.8354  -0.8025  -0.7721  -0.7273  -0.7132  -0.6982  -0.6569
    -0.6280  -0.5899  -0.5303  -0.5020  -0.1970  -0.1594  -0.1247  -0.1087
    -0.0780  -0.0559  -0.0156   0.0042   0.3910   0.4257   0.4582   0.4790
     0.4933   0.5102   0.5298   0.5642   0.5892   0.6299   0.6833   0.7255
     0.7694   0.8027   0.8297   0.8653   0.9147   0.9368   0.9505   0.9620
     0.9809   0.9945   1.0118   1.0349   1.0449   1.0612   1.0827   1.0991
     1.1260   1.1357   1.1632   1.1814   1.1896   1.2184   1.2284   1.2410
     1.2539   1.2680   1.2794   1.2868   1.3108   1.3223   1.3464   1.4137
     1.4285   1.4423   1.4594   1.4798   1.5149   1.5250   1.5856   1.5954
     1.6424   1.7037   1.7329   1.7462   1.7707   1.8285   1.8600   2.0847

          k = 0.1250-0.1238-0.1256 (310420 PWs)   bands (ev):

   -17.9313 -17.9171 -17.8793 -17.8719 -17.8523 -17.8397 -17.8356 -17.8055
   -15.7308 -15.7023 -15.6563 -15.6488 -15.6264 -15.6186 -15.6114 -15.5619
   -14.3420 -14.3381 -14.3086 -14.3052 -14.2983 -14.2928 -14.2840 -14.2828
   -14.2791 -14.2736 -14.2733 -14.2682 -14.2605 -14.2573 -14.2534 -14.2500
   -14.2480 -14.2471 -14.2470 -14.2465 -14.2452 -14.2436 -14.2413 -14.2400
   -14.2382 -14.2365 -14.2358 -14.2307 -14.2306 -14.2206 -14.2204 -14.2152
   -14.2141 -14.2100 -14.2079 -14.2035 -14.2021 -14.1829 -14.1726 -14.1639
    -9.8039  -9.7759  -9.7217  -9.6837  -9.6673  -9.6293  -9.5974  -9.5864
    -9.4886  -9.4500  -9.4066  -9.3775  -9.3273  -9.2886  -9.2691  -9.2386
    -9.2312  -9.2040  -9.1725  -9.1517  -9.1318  -9.1081  -9.0983  -9.0827
    -9.0631  -9.0260  -8.9961  -8.9800  -8.9681  -8.9509  -8.9077  -8.8455
    -7.7742  -7.7495  -7.6897  -7.6792  -7.6647  -7.6587  -7.6475  -7.6279
    -7.1080  -7.0619  -7.0600  -7.0396  -7.0164  -7.0121  -6.9869  -6.9375
    -5.8780  -5.4818  -5.4534  -5.4317  -5.4087  -5.3757  -5.3529  -5.3389
    -5.3198  -5.3115  -5.3051  -5.2818  -5.0478  -5.0020  -4.9818  -4.5981
    -3.8892  -3.8548  -3.8318  -3.8154  -3.7979  -3.7882  -3.7743  -3.7548
    -3.3336  -3.3195  -3.2849  -3.2768  -3.2622  -3.2488  -3.2393  -3.2016
    -0.8683  -0.8239  -0.7981  -0.7728  -0.7318  -0.7124  -0.6967  -0.6519
    -0.6284  -0.5941  -0.5315  -0.5027  -0.1977  -0.1602  -0.1281  -0.1044
    -0.0796  -0.0554  -0.0152   0.0038   0.3902   0.4235   0.4615   0.4762
     0.4982   0.5063   0.5285   0.5640   0.5859   0.6431   0.6899   0.7445
     0.7739   0.7862   0.8180   0.8674   0.9072   0.9225   0.9591   0.9652
     0.9774   0.9979   1.0047   1.0231   1.0505   1.0626   1.0889   1.1053
     1.1157   1.1456   1.1682   1.1738   1.1954   1.2024   1.2292   1.2413
     1.2551   1.2703   1.2865   1.2956   1.3050   1.3330   1.3437   1.4069
     1.4328   1.4525   1.4615   1.4755   1.5050   1.5236   1.5788   1.5985
     1.6483   1.6976   1.7322   1.7454   1.7693   1.8342   1.8563   2.0858

          k =-0.1250-0.1238 0.3767 (310379 PWs)   bands (ev):

   -17.9313 -17.9171 -17.8793 -17.8719 -17.8523 -17.8397 -17.8357 -17.8055
   -15.7308 -15.7023 -15.6562 -15.6488 -15.6265 -15.6182 -15.6118 -15.5619
   -14.3420 -14.3380 -14.3086 -14.3052 -14.2983 -14.2923 -14.2839 -14.2828
   -14.2785 -14.2740 -14.2732 -14.2681 -14.2605 -14.2573 -14.2538 -14.2500
   -14.2483 -14.2471 -14.2470 -14.2465 -14.2452 -14.2437 -14.2413 -14.2400
   -14.2382 -14.2365 -14.2360 -14.2307 -14.2306 -14.2207 -14.2204 -14.2152
   -14.2141 -14.2100 -14.2079 -14.2034 -14.2021 -14.1829 -14.1726 -14.1639
    -9.7881  -9.7691  -9.7243  -9.6745  -9.6647  -9.6531  -9.6150  -9.5980
    -9.4884  -9.4311  -9.4026  -9.3579  -9.3472  -9.3073  -9.2958  -9.2582
    -9.2242  -9.1990  -9.1703  -9.1279  -9.1072  -9.0997  -9.0816  -9.0693
    -9.0572  -9.0334  -9.0046  -8.9935  -8.9713  -8.9513  -8.9143  -8.8498
    -7.7743  -7.7494  -7.6897  -7.6786  -7.6639  -7.6601  -7.6481  -7.6277
    -7.1081  -7.0620  -7.0598  -7.0398  -7.0164  -7.0121  -6.9869  -6.9374
    -5.7621  -5.5868  -5.4527  -5.3871  -5.3646  -5.3478  -5.3384  -5.3304
    -5.3177  -5.3082  -5.2927  -5.2630  -5.1607  -5.1237  -4.9065  -4.7282
    -3.8892  -3.8525  -3.8310  -3.8187  -3.7989  -3.7853  -3.7761  -3.7551
    -3.3336  -3.3191  -3.2845  -3.2773  -3.2624  -3.2482  -3.2402  -3.2017
    -0.8498  -0.8124  -0.7598  -0.7047  -0.6793  -0.6555  -0.6187  -0.5687
    -0.4050  -0.3623  -0.2912  -0.2159  -0.1713  -0.1368  -0.1197  -0.0903
    -0.0670  -0.0603  -0.0360   0.0080   0.1557   0.2396   0.2962   0.3704
     0.4307   0.4503   0.4699   0.4978   0.5189   0.5577   0.5698   0.5968
     0.6353   0.6967   0.8151   0.8265   0.8792   0.9006   0.9340   0.9481
     0.9701   0.9812   1.0102   1.0236   1.0572   1.0694   1.0889   1.1057
     1.1300   1.1506   1.1682   1.1790   1.2016   1.2172   1.2362   1.2508
     1.2753   1.2827   1.2984   1.3048   1.3166   1.3456   1.3620   1.3852
     1.4097   1.4229   1.4407   1.4705   1.4955   1.5288   1.5395   1.5698
     1.6288   1.6465   1.6641   1.6763   1.7358   1.7572   1.8200   1.9574

          k =-0.1250 0.1238-0.3767 (310379 PWs)   bands (ev):

   -17.9313 -17.9171 -17.8793 -17.8719 -17.8523 -17.8397 -17.8357 -17.8055
   -15.7308 -15.7023 -15.6562 -15.6488 -15.6265 -15.6182 -15.6118 -15.5619
   -14.3420 -14.3380 -14.3086 -14.3052 -14.2983 -14.2923 -14.2839 -14.2828
   -14.2785 -14.2740 -14.2732 -14.2681 -14.2605 -14.2573 -14.2538 -14.2500
   -14.2483 -14.2471 -14.2470 -14.2465 -14.2452 -14.2437 -14.2413 -14.2400
   -14.2382 -14.2365 -14.2360 -14.2307 -14.2306 -14.2207 -14.2204 -14.2152
   -14.2141 -14.2100 -14.2079 -14.2034 -14.2021 -14.1829 -14.1726 -14.1639
    -9.7886  -9.7680  -9.7247  -9.6759  -9.6650  -9.6520  -9.6138  -9.6000
    -9.4807  -9.4354  -9.4062  -9.3577  -9.3472  -9.3069  -9.2935  -9.2601
    -9.2254  -9.2036  -9.1641  -9.1242  -9.1087  -9.1021  -9.0844  -9.0695
    -9.0540  -9.0312  -9.0058  -8.9964  -8.9669  -8.9542  -8.9138  -8.8500
    -7.7742  -7.7492  -7.6896  -7.6786  -7.6635  -7.6604  -7.6483  -7.6282
    -7.1081  -7.0620  -7.0598  -7.0398  -7.0163  -7.0121  -6.9869  -6.9375
    -5.7619  -5.5875  -5.4528  -5.3872  -5.3648  -5.3560  -5.3349  -5.3272
    -5.3185  -5.3069  -5.2867  -5.2654  -5.1628  -5.1218  -4.9076  -4.7287
    -3.8889  -3.8524  -3.8309  -3.8187  -3.7991  -3.7854  -3.7761  -3.7552
    -3.3335  -3.3191  -3.2844  -3.2778  -3.2623  -3.2480  -3.2401  -3.2017
    -0.8190  -0.8025  -0.7772  -0.7070  -0.6929  -0.6576  -0.6288  -0.5720
    -0.4036  -0.3668  -0.2857  -0.2144  -0.1763  -0.1420  -0.1211  -0.0898
    -0.0648  -0.0535  -0.0372   0.0062   0.1578   0.2430   0.2923   0.3722
     0.4311   0.4512   0.4660   0.5085   0.5213   0.5531   0.5705   0.5921
     0.6494   0.6948   0.8093   0.8371   0.8800   0.9024   0.9245   0.9543
     0.9777   0.9953   1.0208   1.0313   1.0388   1.0633   1.0877   1.0946
     1.1150   1.1425   1.1628   1.1847   1.2083   1.2197   1.2336   1.2526
     1.2673   1.2806   1.2851   1.3036   1.3218   1.3427   1.3606   1.3821
     1.4071   1.4305   1.4545   1.4688   1.5096   1.5278   1.5452   1.5759
     1.6319   1.6530   1.6651   1.6862   1.7355   1.7589   1.8002   1.9308

          k = 0.1250-0.1238-0.3767 (310379 PWs)   bands (ev):

   -17.9313 -17.9171 -17.8793 -17.8719 -17.8523 -17.8397 -17.8357 -17.8055
   -15.7308 -15.7023 -15.6562 -15.6488 -15.6265 -15.6182 -15.6118 -15.5619
   -14.3420 -14.3380 -14.3086 -14.3052 -14.2983 -14.2923 -14.2839 -14.2828
   -14.2785 -14.2740 -14.2732 -14.2681 -14.2605 -14.2573 -14.2538 -14.2500
   -14.2483 -14.2471 -14.2470 -14.2465 -14.2452 -14.2437 -14.2413 -14.2400
   -14.2382 -14.2365 -14.2360 -14.2307 -14.2306 -14.2207 -14.2204 -14.2152
   -14.2141 -14.2100 -14.2079 -14.2034 -14.2021 -14.1829 -14.1726 -14.1639
    -9.7878  -9.7681  -9.7256  -9.6778  -9.6632  -9.6522  -9.6144  -9.5996
    -9.4854  -9.4270  -9.4005  -9.3615  -9.3494  -9.3201  -9.2803  -9.2563
    -9.2371  -9.1999  -9.1598  -9.1244  -9.1138  -9.0993  -9.0896  -9.0669
    -9.0551  -9.0280  -9.0040  -8.9959  -8.9704  -8.9523  -8.9141  -8.8502
    -7.7742  -7.7495  -7.6897  -7.6784  -7.6642  -7.6598  -7.6483  -7.6277
    -7.1081  -7.0618  -7.0599  -7.0399  -7.0164  -7.0121  -6.9869  -6.9375
    -5.7627  -5.5866  -5.4529  -5.3877  -5.3620  -5.3508  -5.3348  -5.3286
    -5.3194  -5.3082  -5.2898  -5.2698  -5.1594  -5.1219  -4.9071  -4.7291
    -3.8889  -3.8524  -3.8315  -3.8182  -3.7990  -3.7854  -3.7763  -3.7550
    -3.3336  -3.3193  -3.2847  -3.2773  -3.2622  -3.2482  -3.2401  -3.2016
    -0.8204  -0.8041  -0.7737  -0.7030  -0.6974  -0.6596  -0.6264  -0.5716
    -0.4036  -0.3629  -0.2896  -0.2183  -0.1661  -0.1468  -0.1256  -0.0911
    -0.0668  -0.0562  -0.0341   0.0055   0.1612   0.2310   0.3064   0.3716
     0.4298   0.4527   0.4717   0.5057   0.5286   0.5565   0.5683   0.5994
     0.6400   0.6938   0.8059   0.8225   0.8791   0.9178   0.9247   0.9503
     0.9753   0.9874   1.0073   1.0333   1.0457   1.0655   1.0874   1.1062
     1.1199   1.1425   1.1626   1.1836   1.2098   1.2124   1.2279   1.2498
     1.2654   1.2809   1.2975   1.3094   1.3311   1.3422   1.3527   1.3913
     1.4097   1.4327   1.4473   1.4690   1.5022   1.5188   1.5518   1.5733
     1.6365   1.6442   1.6647   1.6843   1.7377   1.7603   1.8016   1.9310

          k =-0.1250-0.3714 0.1256 (310281 PWs)   bands (ev):

   -17.9313 -17.9171 -17.8793 -17.8719 -17.8523 -17.8397 -17.8356 -17.8055
   -15.7308 -15.7023 -15.6563 -15.6488 -15.6264 -15.6186 -15.6114 -15.5619
   -14.3420 -14.3379 -14.3086 -14.3052 -14.2983 -14.2925 -14.2843 -14.2824
   -14.2790 -14.2736 -14.2724 -14.2691 -14.2610 -14.2573 -14.2539 -14.2500
   -14.2476 -14.2471 -14.2470 -14.2465 -14.2452 -14.2435 -14.2413 -14.2400
   -14.2382 -14.2365 -14.2358 -14.2307 -14.2306 -14.2208 -14.2204 -14.2152
   -14.2141 -14.2100 -14.2079 -14.2035 -14.2022 -14.1829 -14.1726 -14.1639
    -9.7954  -9.7830  -9.7186  -9.6840  -9.6671  -9.6315  -9.5972  -9.5857
    -9.4677  -9.4466  -9.3965  -9.3823  -9.3636  -9.3224  -9.2914  -9.2522
    -9.2304  -9.2005  -9.1674  -9.1308  -9.1143  -9.0873  -9.0813  -9.0598
    -9.0513  -9.0383  -9.0062  -8.9911  -8.9613  -8.9556  -8.9148  -8.8555
    -7.7733  -7.7491  -7.6855  -7.6795  -7.6655  -7.6609  -7.6477  -7.6285
    -7.1080  -7.0628  -7.0589  -7.0389  -7.0173  -7.0123  -6.9869  -6.9375
    -5.7597  -5.5702  -5.4529  -5.3858  -5.3666  -5.3537  -5.3466  -5.3255
    -5.3150  -5.3118  -5.2943  -5.2655  -5.1580  -5.1210  -4.9165  -4.7401
    -3.8885  -3.8538  -3.8294  -3.8174  -3.7996  -3.7878  -3.7742  -3.7554
    -3.3335  -3.3191  -3.2844  -3.2755  -3.2641  -3.2492  -3.2396  -3.2021
    -0.8654  -0.8031  -0.7406  -0.7033  -0.6699  -0.6100  -0.5752  -0.5437
    -0.3930  -0.3672  -0.3000  -0.2175  -0.1830  -0.1321  -0.1161  -0.0995
    -0.0811  -0.0725  -0.0194  -0.0017   0.1955   0.2503   0.3209   0.3764
     0.4043   0.4663   0.4865   0.5066   0.5226   0.5328   0.5551   0.6163
     0.6548   0.6750   0.7510   0.7858   0.8342   0.8552   0.9135   0.9320
     0.9648   1.0044   1.0133   1.0313   1.0523   1.0616   1.0784   1.1025
     1.1134   1.1458   1.1745   1.1872   1.1967   1.2203   1.2339   1.2448
     1.2734   1.2882   1.3004   1.3243   1.3337   1.3506   1.3783   1.3987
     1.4070   1.4287   1.4430   1.4686   1.5038   1.5170   1.5288   1.5504
     1.5921   1.6122   1.6339   1.6929   1.7025   1.7555   1.8466   1.9280

          k =-0.1250 0.3714-0.1256 (310281 PWs)   bands (ev):

   -17.9313 -17.9171 -17.8793 -17.8719 -17.8523 -17.8397 -17.8356 -17.8055
   -15.7308 -15.7023 -15.6563 -15.6488 -15.6264 -15.6186 -15.6114 -15.5619
   -14.3420 -14.3379 -14.3086 -14.3052 -14.2983 -14.2925 -14.2843 -14.2824
   -14.2790 -14.2736 -14.2724 -14.2691 -14.2610 -14.2573 -14.2539 -14.2500
   -14.2476 -14.2471 -14.2470 -14.2465 -14.2452 -14.2435 -14.2413 -14.2400
   -14.2382 -14.2365 -14.2358 -14.2307 -14.2306 -14.2208 -14.2204 -14.2152
   -14.2141 -14.2100 -14.2079 -14.2035 -14.2022 -14.1829 -14.1726 -14.1639
    -9.7967  -9.7813  -9.7204  -9.6835  -9.6656  -9.6303  -9.5994  -9.5866
    -9.4615  -9.4421  -9.4066  -9.3827  -9.3661  -9.3216  -9.2917  -9.2539
    -9.2256  -9.1985  -9.1696  -9.1324  -9.1106  -9.0884  -9.0810  -9.0630
    -9.0535  -9.0317  -9.0073  -8.9932  -8.9622  -8.9535  -8.9143  -8.8561
    -7.7732  -7.7488  -7.6856  -7.6794  -7.6654  -7.6613  -7.6477  -7.6288
    -7.1079  -7.0627  -7.0589  -7.0389  -7.0172  -7.0123  -6.9869  -6.9376
    -5.7595  -5.5710  -5.4522  -5.3886  -5.3679  -5.3563  -5.3474  -5.3236
    -5.3146  -5.3101  -5.2916  -5.2601  -5.1599  -5.1233  -4.9158  -4.7413
    -3.8882  -3.8536  -3.8294  -3.8175  -3.7995  -3.7881  -3.7743  -3.7554
    -3.3335  -3.3191  -3.2843  -3.2760  -3.2639  -3.2490  -3.2395  -3.2021
    -0.8499  -0.8146  -0.7279  -0.7140  -0.6665  -0.6050  -0.5710  -0.5418
    -0.3989  -0.3805  -0.3113  -0.2276  -0.1836  -0.1376  -0.1279  -0.0977
    -0.0833  -0.0702  -0.0203   0.0020   0.2097   0.2675   0.3312   0.3950
     0.4017   0.4675   0.4832   0.5089   0.5223   0.5307   0.5557   0.6117
     0.6402   0.6887   0.7493   0.7766   0.8321   0.8550   0.9164   0.9324
     0.9684   0.9993   1.0156   1.0215   1.0475   1.0724   1.0915   1.1009
     1.1217   1.1393   1.1803   1.1850   1.1913   1.2085   1.2387   1.2518
     1.2664   1.2777   1.2980   1.3142   1.3346   1.3511   1.3794   1.3986
     1.4242   1.4314   1.4432   1.4630   1.5028   1.5146   1.5385   1.5579
     1.5763   1.6170   1.6284   1.6948   1.7050   1.7596   1.8490   1.9124

          k = 0.1250-0.3714-0.1256 (310281 PWs)   bands (ev):

   -17.9313 -17.9171 -17.8793 -17.8719 -17.8523 -17.8397 -17.8356 -17.8055
   -15.7308 -15.7023 -15.6563 -15.6488 -15.6264 -15.6186 -15.6114 -15.5619
   -14.3420 -14.3379 -14.3086 -14.3052 -14.2983 -14.2925 -14.2843 -14.2824
   -14.2790 -14.2736 -14.2724 -14.2691 -14.2610 -14.2573 -14.2539 -14.2500
   -14.2476 -14.2471 -14.2470 -14.2465 -14.2452 -14.2435 -14.2413 -14.2400
   -14.2382 -14.2365 -14.2358 -14.2307 -14.2306 -14.2208 -14.2204 -14.2152
   -14.2141 -14.2100 -14.2079 -14.2035 -14.2022 -14.1829 -14.1726 -14.1639
    -9.7960  -9.7816  -9.7202  -9.6841  -9.6673  -9.6299  -9.5987  -9.5857
    -9.4654  -9.4385  -9.4101  -9.3821  -9.3634  -9.3151  -9.2901  -9.2515
    -9.2404  -9.2021  -9.1616  -9.1301  -9.1042  -9.0998  -9.0824  -9.0630
    -9.0540  -9.0284  -9.0058  -8.9921  -8.9605  -8.9565  -8.9143  -8.8562
    -7.7733  -7.7491  -7.6858  -7.6791  -7.6660  -7.6607  -7.6478  -7.6284
    -7.1079  -7.0626  -7.0590  -7.0390  -7.0172  -7.0123  -6.9869  -6.9376
    -5.7602  -5.5698  -5.4533  -5.3927  -5.3653  -5.3535  -5.3430  -5.3217
    -5.3172  -5.3073  -5.2939  -5.2678  -5.1594  -5.1209  -4.9159  -4.7414
    -3.8881  -3.8537  -3.8299  -3.8169  -3.7995  -3.7879  -3.7744  -3.7553
    -3.3335  -3.3192  -3.2846  -3.2755  -3.2639  -3.2492  -3.2395  -3.2020
    -0.8625  -0.7962  -0.7375  -0.7005  -0.6695  -0.6090  -0.5761  -0.5396
    -0.4013  -0.3769  -0.3086  -0.2288  -0.1866  -0.1441  -0.1355  -0.0913
    -0.0868  -0.0665  -0.0181   0.0030   0.2124   0.2686   0.3306   0.3880
     0.4092   0.4751   0.4855   0.5070   0.5175   0.5326   0.5604   0.6172
     0.6527   0.6791   0.7341   0.7699   0.8406   0.8511   0.9206   0.9283
     0.9637   1.0069   1.0156   1.0272   1.0406   1.0631   1.0896   1.1047
     1.1173   1.1424   1.1559   1.1846   1.1992   1.2232   1.2304   1.2468
     1.2747   1.2962   1.3028   1.3233   1.3349   1.3439   1.3718   1.3971
     1.4113   1.4368   1.4488   1.4846   1.4939   1.5103   1.5391   1.5582
     1.5784   1.6051   1.6343   1.6944   1.7019   1.7553   1.8485   1.9145

          k =-0.1250-0.3714 0.3767 (310376 PWs)   bands (ev):

   -17.9313 -17.9171 -17.8793 -17.8719 -17.8523 -17.8397 -17.8357 -17.8055
   -15.7308 -15.7023 -15.6562 -15.6488 -15.6265 -15.6182 -15.6118 -15.5619
   -14.3420 -14.3378 -14.3086 -14.3052 -14.2983 -14.2920 -14.2841 -14.2823
   -14.2784 -14.2737 -14.2729 -14.2687 -14.2610 -14.2573 -14.2543 -14.2500
   -14.2480 -14.2471 -14.2470 -14.2465 -14.2452 -14.2436 -14.2413 -14.2400
   -14.2382 -14.2365 -14.2360 -14.2307 -14.2306 -14.2210 -14.2204 -14.2152
   -14.2141 -14.2100 -14.2079 -14.2035 -14.2022 -14.1829 -14.1726 -14.1639
    -9.7842  -9.7699  -9.7229  -9.6725  -9.6674  -9.6538  -9.6147  -9.5972
    -9.4671  -9.4295  -9.3961  -9.3807  -9.3515  -9.3305  -9.3105  -9.2782
    -9.2556  -9.1692  -9.1422  -9.1156  -9.0979  -9.0860  -9.0763  -9.0699
    -9.0541  -9.0319  -9.0084  -8.9972  -8.9662  -8.9499  -8.9235  -8.8601
    -7.7734  -7.7491  -7.6855  -7.6787  -7.6664  -7.6603  -7.6490  -7.6282
    -7.1080  -7.0628  -7.0590  -7.0390  -7.0172  -7.0123  -6.9869  -6.9375
    -5.6474  -5.4956  -5.4565  -5.4440  -5.3844  -5.3557  -5.3410  -5.3292
    -5.3151  -5.3060  -5.2757  -5.2534  -5.2197  -5.0644  -5.0265  -4.8685
    -3.8881  -3.8519  -3.8274  -3.8201  -3.8014  -3.7851  -3.7762  -3.7551
    -3.3336  -3.3189  -3.2846  -3.2756  -3.2642  -3.2487  -3.2402  -3.2022
    -0.8273  -0.7128  -0.6636  -0.6024  -0.4439  -0.4075  -0.3692  -0.3417
    -0.3167  -0.2791  -0.2513  -0.2351  -0.1553  -0.1294  -0.1046  -0.0973
    -0.0655  -0.0586  -0.0313   0.0047   0.1279   0.1748   0.2288   0.2662
     0.2903   0.3238   0.3582   0.4064   0.4678   0.5050   0.5365   0.5572
     0.6050   0.6545   0.7107   0.7486   0.7846   0.8100   0.8344   0.8584
     0.8869   0.9188   0.9575   0.9881   1.0132   1.0263   1.0582   1.0810
     1.1175   1.1525   1.1651   1.1726   1.2170   1.2337   1.2469   1.2636
     1.2813   1.2970   1.3090   1.3307   1.3481   1.3555   1.3760   1.3840
     1.4125   1.4228   1.4547   1.4599   1.4813   1.4998   1.5092   1.5568
     1.5682   1.5987   1.6175   1.6551   1.6643   1.6843   1.7328   1.8132

          k =-0.1250 0.3714-0.3767 (310376 PWs)   bands (ev):

   -17.9313 -17.9171 -17.8793 -17.8719 -17.8523 -17.8397 -17.8357 -17.8055
   -15.7308 -15.7023 -15.6562 -15.6488 -15.6265 -15.6182 -15.6118 -15.5619
   -14.3420 -14.3378 -14.3086 -14.3052 -14.2983 -14.2920 -14.2841 -14.2823
   -14.2784 -14.2737 -14.2729 -14.2687 -14.2610 -14.2573 -14.2543 -14.2500
   -14.2480 -14.2471 -14.2470 -14.2465 -14.2452 -14.2436 -14.2413 -14.2400
   -14.2382 -14.2365 -14.2360 -14.2307 -14.2306 -14.2210 -14.2204 -14.2152
   -14.2141 -14.2100 -14.2079 -14.2035 -14.2022 -14.1829 -14.1726 -14.1639
    -9.7848  -9.7686  -9.7242  -9.6737  -9.6666  -9.6524  -9.6138  -9.6009
    -9.4537  -9.4326  -9.4061  -9.3696  -9.3544  -9.3437  -9.3066  -9.2841
    -9.2473  -9.1695  -9.1394  -9.1169  -9.0989  -9.0856  -9.0762  -9.0726
    -9.0520  -9.0267  -9.0110  -9.0012  -8.9622  -8.9527  -8.9225  -8.8606
    -7.7733  -7.7488  -7.6854  -7.6787  -7.6660  -7.6606  -7.6491  -7.6286
    -7.1080  -7.0628  -7.0589  -7.0390  -7.0171  -7.0123  -6.9869  -6.9375
    -5.6472  -5.4971  -5.4570  -5.4436  -5.3830  -5.3555  -5.3431  -5.3291
    -5.3157  -5.3043  -5.2760  -5.2534  -5.2170  -5.0648  -5.0269  -4.8698
    -3.8878  -3.8517  -3.8273  -3.8202  -3.8015  -3.7854  -3.7762  -3.7552
    -3.3335  -3.3189  -3.2845  -3.2762  -3.2640  -3.2486  -3.2401  -3.2022
    -0.8180  -0.7022  -0.6692  -0.5984  -0.4497  -0.4128  -0.3750  -0.3438
    -0.3234  -0.2885  -0.2559  -0.2338  -0.1637  -0.1332  -0.1034  -0.0866
    -0.0710  -0.0562  -0.0347   0.0002   0.1318   0.1793   0.2424   0.2812
     0.2976   0.3191   0.3706   0.4000   0.4686   0.5033   0.5269   0.5563
     0.6092   0.6615   0.7232   0.7411   0.7836   0.7932   0.8457   0.8669
     0.8976   0.9021   0.9595   0.9990   1.0110   1.0179   1.0600   1.0758
     1.1102   1.1393   1.1683   1.1792   1.1996   1.2250   1.2516   1.2702
     1.2776   1.2928   1.3143   1.3333   1.3501   1.3619   1.3770   1.3874
     1.4121   1.4283   1.4529   1.4636   1.4829   1.5060   1.5107   1.5510
     1.5716   1.5950   1.6060   1.6587   1.6812   1.6868   1.7261   1.7922

          k = 0.1250-0.3714-0.3767 (310376 PWs)   bands (ev):

   -17.9313 -17.9171 -17.8793 -17.8719 -17.8523 -17.8397 -17.8357 -17.8055
   -15.7308 -15.7023 -15.6562 -15.6488 -15.6265 -15.6182 -15.6118 -15.5619
   -14.3420 -14.3378 -14.3086 -14.3052 -14.2983 -14.2920 -14.2841 -14.2823
   -14.2784 -14.2737 -14.2729 -14.2687 -14.2610 -14.2573 -14.2543 -14.2500
   -14.2480 -14.2471 -14.2470 -14.2465 -14.2452 -14.2436 -14.2413 -14.2400
   -14.2382 -14.2365 -14.2360 -14.2307 -14.2306 -14.2210 -14.2204 -14.2152
   -14.2141 -14.2100 -14.2079 -14.2035 -14.2022 -14.1829 -14.1726 -14.1639
    -9.7841  -9.7686  -9.7243  -9.6771  -9.6646  -9.6530  -9.6140  -9.5989
    -9.4598  -9.4261  -9.4093  -9.3664  -9.3542  -9.3404  -9.3009  -9.2889
    -9.2553  -9.1652  -9.1401  -9.1117  -9.1047  -9.0913  -9.0784  -9.0663
    -9.0539  -9.0260  -9.0052  -9.0025  -8.9641  -8.9517  -8.9232  -8.8606
    -7.7733  -7.7491  -7.6856  -7.6784  -7.6665  -7.6601  -7.6492  -7.6282
    -7.1080  -7.0627  -7.0590  -7.0391  -7.0171  -7.0123  -6.9869  -6.9375
    -5.6491  -5.4941  -5.4622  -5.4348  -5.3769  -5.3581  -5.3477  -5.3336
    -5.3118  -5.3082  -5.2872  -5.2438  -5.2136  -5.0667  -5.0255  -4.8701
    -3.8878  -3.8518  -3.8281  -3.8194  -3.8015  -3.7852  -3.7764  -3.7551
    -3.3336  -3.3191  -3.2848  -3.2757  -3.2639  -3.2487  -3.2401  -3.2021
    -0.8202  -0.6989  -0.6680  -0.5990  -0.4456  -0.4149  -0.3772  -0.3466
    -0.3151  -0.2840  -0.2574  -0.2384  -0.1529  -0.1391  -0.1322  -0.0904
    -0.0686  -0.0634  -0.0322   0.0023   0.1371   0.2009   0.2565   0.2881
     0.3102   0.3204   0.3464   0.3861   0.4677   0.5023   0.5388   0.5558
     0.6121   0.6592   0.7114   0.7319   0.7762   0.8066   0.8456   0.8545
     0.8970   0.9311   0.9505   0.9907   0.9979   1.0195   1.0522   1.0917
     1.1065   1.1489   1.1594   1.1884   1.2094   1.2272   1.2512   1.2649
     1.2746   1.2994   1.3089   1.3358   1.3523   1.3582   1.3813   1.3980
     1.4041   1.4262   1.4489   1.4628   1.4877   1.4948   1.5264   1.5529
     1.5601   1.5915   1.6200   1.6516   1.6659   1.6878   1.7286   1.7968

          k =-0.3750-0.1238 0.1256 (310433 PWs)   bands (ev):

   -17.9310 -17.9175 -17.8793 -17.8719 -17.8523 -17.8398 -17.8356 -17.8056
   -15.7293 -15.7039 -15.6562 -15.6488 -15.6264 -15.6186 -15.6115 -15.5619
   -14.3418 -14.3381 -14.3086 -14.3052 -14.2983 -14.2928 -14.2839 -14.2831
   -14.2787 -14.2733 -14.2728 -14.2684 -14.2612 -14.2573 -14.2534 -14.2500
   -14.2480 -14.2470 -14.2470 -14.2465 -14.2452 -14.2441 -14.2413 -14.2400
   -14.2382 -14.2365 -14.2353 -14.2307 -14.2306 -14.2206 -14.2204 -14.2152
   -14.2141 -14.2100 -14.2079 -14.2034 -14.2026 -14.1829 -14.1726 -14.1639
    -9.7776  -9.7617  -9.7257  -9.7130  -9.6772  -9.6282  -9.6007  -9.5910
    -9.4976  -9.4551  -9.3927  -9.3610  -9.3412  -9.3163  -9.2645  -9.2342
    -9.2215  -9.1973  -9.1715  -9.1606  -9.1352  -9.1179  -9.0960  -9.0719
    -9.0333  -9.0189  -8.9921  -8.9841  -8.9690  -8.9394  -8.9207  -8.8632
    -7.7681  -7.7567  -7.6896  -7.6787  -7.6646  -7.6595  -7.6482  -7.6281
    -7.1074  -7.0621  -7.0598  -7.0393  -7.0163  -7.0123  -6.9867  -6.9375
    -5.7624  -5.5873  -5.4311  -5.4002  -5.3679  -5.3493  -5.3410  -5.3220
    -5.3151  -5.3068  -5.2945  -5.2698  -5.1694  -5.1239  -4.8954  -4.7317
    -3.8894  -3.8549  -3.8306  -3.8160  -3.7968  -3.7897  -3.7747  -3.7552
    -3.3337  -3.3190  -3.2835  -3.2745  -3.2603  -3.2505  -3.2427  -3.2032
    -0.8339  -0.8097  -0.7729  -0.7311  -0.7117  -0.6548  -0.6362  -0.5934
    -0.4280  -0.3388  -0.2467  -0.2033  -0.1744  -0.1337  -0.1075  -0.0899
    -0.0676  -0.0426  -0.0305   0.0019   0.1329   0.2349   0.3329   0.4049
     0.4421   0.4547   0.4882   0.5112   0.5290   0.5545   0.5716   0.6079
     0.6348   0.7187   0.7882   0.8199   0.8540   0.8874   0.9050   0.9280
     0.9779   0.9990   1.0080   1.0237   1.0487   1.0658   1.0830   1.1181
     1.1279   1.1429   1.1629   1.1855   1.2088   1.2318   1.2370   1.2479
     1.2604   1.2715   1.2873   1.3065   1.3313   1.3506   1.3785   1.4039
     1.4307   1.4373   1.4629   1.4895   1.4984   1.5180   1.5419   1.5885
     1.6135   1.6210   1.6548   1.6591   1.7064   1.7249   1.8274   1.9121

          k =-0.3750 0.1238-0.1256 (310433 PWs)   bands (ev):

   -17.9310 -17.9175 -17.8793 -17.8719 -17.8523 -17.8398 -17.8356 -17.8056
   -15.7293 -15.7039 -15.6562 -15.6488 -15.6264 -15.6186 -15.6115 -15.5619
   -14.3418 -14.3381 -14.3086 -14.3052 -14.2983 -14.2928 -14.2839 -14.2831
   -14.2787 -14.2733 -14.2728 -14.2684 -14.2612 -14.2573 -14.2534 -14.2500
   -14.2480 -14.2470 -14.2470 -14.2465 -14.2452 -14.2441 -14.2413 -14.2400
   -14.2382 -14.2365 -14.2353 -14.2307 -14.2306 -14.2206 -14.2204 -14.2152
   -14.2141 -14.2100 -14.2079 -14.2034 -14.2026 -14.1829 -14.1726 -14.1639
    -9.7786  -9.7604  -9.7280  -9.7115  -9.6762  -9.6279  -9.6025  -9.5902
    -9.4941  -9.4535  -9.3991  -9.3683  -9.3465  -9.2983  -9.2611  -9.2310
    -9.2258  -9.2094  -9.1766  -9.1495  -9.1326  -9.1181  -9.0968  -9.0733
    -9.0385  -9.0100  -9.0004  -8.9773  -8.9702  -8.9426  -8.9176  -8.8642
    -7.7680  -7.7565  -7.6895  -7.6786  -7.6645  -7.6597  -7.6483  -7.6285
    -7.1074  -7.0621  -7.0598  -7.0393  -7.0162  -7.0123  -6.9867  -6.9376
    -5.7620  -5.5884  -5.4319  -5.3994  -5.3701  -5.3571  -5.3425  -5.3178
    -5.3144  -5.3074  -5.2825  -5.2682  -5.1726  -5.1264  -4.8949  -4.7327
    -3.8891  -3.8549  -3.8307  -3.8158  -3.7968  -3.7898  -3.7749  -3.7553
    -3.3336  -3.3190  -3.2834  -3.2750  -3.2602  -3.2504  -3.2426  -3.2032
    -0.8299  -0.7988  -0.7751  -0.7339  -0.6944  -0.6603  -0.6377  -0.5977
    -0.4491  -0.3495  -0.2509  -0.1829  -0.1804  -0.1452  -0.1154  -0.1043
    -0.0655  -0.0348  -0.0237  -0.0013   0.1410   0.2529   0.3363   0.4108
     0.4443   0.4584   0.4834   0.5025   0.5399   0.5478   0.5679   0.6161
     0.6578   0.7021   0.7777   0.8253   0.8540   0.8896   0.9029   0.9295
     0.9731   0.9952   1.0073   1.0275   1.0471   1.0730   1.0953   1.1092
     1.1226   1.1505   1.1679   1.1862   1.1925   1.2224   1.2333   1.2472
     1.2626   1.2706   1.2848   1.3060   1.3332   1.3463   1.3646   1.4025
     1.4375   1.4505   1.4602   1.4799   1.5122   1.5309   1.5576   1.5794
     1.5981   1.6297   1.6541   1.6748   1.6941   1.7192   1.8405   1.8872

          k = 0.3750-0.1238-0.1256 (310433 PWs)   bands (ev):

   -17.9310 -17.9175 -17.8793 -17.8719 -17.8523 -17.8398 -17.8356 -17.8056
   -15.7293 -15.7039 -15.6562 -15.6488 -15.6264 -15.6186 -15.6115 -15.5619
   -14.3418 -14.3381 -14.3086 -14.3052 -14.2983 -14.2928 -14.2839 -14.2831
   -14.2787 -14.2733 -14.2728 -14.2684 -14.2612 -14.2573 -14.2534 -14.2500
   -14.2480 -14.2470 -14.2470 -14.2465 -14.2452 -14.2441 -14.2413 -14.2400
   -14.2382 -14.2365 -14.2353 -14.2307 -14.2306 -14.2206 -14.2204 -14.2152
   -14.2141 -14.2100 -14.2079 -14.2034 -14.2026 -14.1829 -14.1726 -14.1639
    -9.7775  -9.7603  -9.7286  -9.7117  -9.6780  -9.6276  -9.6021  -9.5901
    -9.4952  -9.4515  -9.3952  -9.3685  -9.3475  -9.2973  -9.2669  -9.2432
    -9.2154  -9.2070  -9.1726  -9.1493  -9.1324  -9.1174  -9.1007  -9.0777
    -9.0346  -9.0111  -8.9955  -8.9786  -8.9738  -8.9373  -8.9217  -8.8638
    -7.7679  -7.7569  -7.6896  -7.6785  -7.6648  -7.6594  -7.6483  -7.6281
    -7.1074  -7.0620  -7.0599  -7.0394  -7.0162  -7.0123  -6.9867  -6.9376
    -5.7624  -5.5885  -5.4307  -5.4011  -5.3691  -5.3570  -5.3390  -5.3210
    -5.3133  -5.3042  -5.2805  -5.2758  -5.1720  -5.1265  -4.8942  -4.7330
    -3.8891  -3.8550  -3.8311  -3.8154  -3.7969  -3.7896  -3.7749  -3.7551
    -3.3337  -3.3192  -3.2837  -3.2745  -3.2602  -3.2506  -3.2426  -3.2031
    -0.8286  -0.7977  -0.7794  -0.7364  -0.6927  -0.6607  -0.6378  -0.5916
    -0.4468  -0.3490  -0.2539  -0.1994  -0.1806  -0.1398  -0.1130  -0.0975
    -0.0698  -0.0379  -0.0220  -0.0016   0.1410   0.2584   0.3363   0.4201
     0.4423   0.4538   0.4809   0.5026   0.5400   0.5519   0.5862   0.5926
     0.6501   0.6943   0.8068   0.8256   0.8649   0.8825   0.9077   0.9410
     0.9534   0.9955   1.0018   1.0135   1.0484   1.0591   1.1002   1.1146
     1.1207   1.1569   1.1628   1.1761   1.1986   1.2124   1.2312   1.2485
     1.2655   1.2743   1.2952   1.3116   1.3310   1.3492   1.3781   1.3998
     1.4377   1.4456   1.4654   1.4869   1.5086   1.5341   1.5416   1.5825
     1.5987   1.6293   1.6454   1.6704   1.6967   1.7225   1.8351   1.8931

          k =-0.3750-0.1238 0.3767 (310374 PWs)   bands (ev):

   -17.9310 -17.9175 -17.8793 -17.8719 -17.8523 -17.8397 -17.8357 -17.8056
   -15.7293 -15.7039 -15.6562 -15.6488 -15.6264 -15.6182 -15.6118 -15.5619
   -14.3418 -14.3380 -14.3086 -14.3052 -14.2983 -14.2923 -14.2838 -14.2830
   -14.2781 -14.2740 -14.2725 -14.2683 -14.2612 -14.2573 -14.2538 -14.2500
   -14.2483 -14.2470 -14.2470 -14.2465 -14.2452 -14.2442 -14.2413 -14.2400
   -14.2382 -14.2365 -14.2355 -14.2307 -14.2306 -14.2207 -14.2204 -14.2152
   -14.2141 -14.2100 -14.2079 -14.2033 -14.2026 -14.1829 -14.1726 -14.1639
    -9.7682  -9.7522  -9.7220  -9.6979  -9.6768  -9.6524  -9.6216  -9.6064
    -9.4824  -9.4289  -9.4018  -9.3894  -9.3363  -9.3099  -9.2956  -9.2677
    -9.2102  -9.1899  -9.1695  -9.1325  -9.1114  -9.1018  -9.0803  -9.0647
    -9.0421  -9.0261  -8.9997  -8.9870  -8.9706  -8.9367  -8.9272  -8.8701
    -7.7681  -7.7562  -7.6896  -7.6775  -7.6633  -7.6611  -7.6499  -7.6287
    -7.1074  -7.0620  -7.0596  -7.0396  -7.0162  -7.0122  -6.9867  -6.9375
    -5.6510  -5.5018  -5.4558  -5.4281  -5.3989  -5.3580  -5.3410  -5.3348
    -5.3148  -5.3077  -5.2956  -5.2633  -5.1927  -5.0497  -5.0123  -4.8628
    -3.8891  -3.8523  -3.8304  -3.8185  -3.7971  -3.7876  -3.7769  -3.7556
    -3.3336  -3.3190  -3.2830  -3.2749  -3.2602  -3.2499  -3.2432  -3.2030
    -0.7988  -0.7722  -0.7142  -0.6785  -0.5006  -0.4258  -0.3827  -0.3503
    -0.3123  -0.2755  -0.2252  -0.1841  -0.1732  -0.1240  -0.1071  -0.0754
    -0.0653  -0.0498  -0.0258   0.0102   0.1085   0.1749   0.2343   0.2677
     0.2965   0.3384   0.3752   0.4287   0.4570   0.4719   0.5037   0.5376
     0.6440   0.7056   0.7379   0.7801   0.8028   0.8382   0.8542   0.8914
     0.9138   0.9637   0.9763   0.9896   1.0133   1.0512   1.0719   1.0797
     1.1155   1.1381   1.1583   1.1694   1.1996   1.2198   1.2288   1.2364
     1.2752   1.2982   1.3195   1.3283   1.3334   1.3508   1.3759   1.3891
     1.4116   1.4222   1.4476   1.4530   1.4917   1.5033   1.5244   1.5541
     1.5804   1.6023   1.6216   1.6594   1.6795   1.7055   1.7352   1.7820

          k =-0.3750 0.1238-0.3767 (310374 PWs)   bands (ev):

   -17.9310 -17.9175 -17.8793 -17.8719 -17.8523 -17.8397 -17.8357 -17.8056
   -15.7293 -15.7039 -15.6562 -15.6488 -15.6264 -15.6182 -15.6118 -15.5619
   -14.3418 -14.3380 -14.3086 -14.3052 -14.2983 -14.2923 -14.2838 -14.2830
   -14.2781 -14.2740 -14.2725 -14.2683 -14.2612 -14.2573 -14.2538 -14.2500
   -14.2483 -14.2470 -14.2470 -14.2465 -14.2452 -14.2442 -14.2413 -14.2400
   -14.2382 -14.2365 -14.2355 -14.2307 -14.2306 -14.2207 -14.2204 -14.2152
   -14.2141 -14.2100 -14.2079 -14.2033 -14.2026 -14.1829 -14.1726 -14.1639
    -9.7690  -9.7506  -9.7216  -9.7001  -9.6765  -9.6529  -9.6200  -9.6078
    -9.4710  -9.4351  -9.4160  -9.3786  -9.3377  -9.3137  -9.2943  -9.2620
    -9.2145  -9.1946  -9.1649  -9.1226  -9.1169  -9.1034  -9.0834  -9.0645
    -9.0403  -9.0257  -9.0028  -8.9829  -8.9677  -8.9476  -8.9198  -8.8710
    -7.7680  -7.7560  -7.6896  -7.6775  -7.6624  -7.6618  -7.6502  -7.6292
    -7.1074  -7.0620  -7.0595  -7.0396  -7.0161  -7.0123  -6.9867  -6.9375
    -5.6504  -5.4979  -5.4653  -5.4299  -5.3982  -5.3559  -5.3446  -5.3258
    -5.3146  -5.3083  -5.2881  -5.2714  -5.1903  -5.0507  -5.0134  -4.8636
    -3.8888  -3.8522  -3.8304  -3.8185  -3.7973  -3.7877  -3.7770  -3.7556
    -3.3335  -3.3190  -3.2829  -3.2754  -3.2601  -3.2497  -3.2431  -3.2030
    -0.7833  -0.7743  -0.7070  -0.6800  -0.4916  -0.4409  -0.4107  -0.3520
    -0.3256  -0.2748  -0.2274  -0.1767  -0.1545  -0.1327  -0.1133  -0.0880
    -0.0606  -0.0404  -0.0269   0.0047   0.1152   0.1934   0.2230   0.2626
     0.3184   0.3316   0.3917   0.4285   0.4506   0.4676   0.5079   0.5386
     0.6474   0.7035   0.7450   0.7742   0.8006   0.8223   0.8691   0.8986
     0.9263   0.9557   0.9792   1.0037   1.0166   1.0384   1.0532   1.0847
     1.1086   1.1386   1.1441   1.1802   1.1984   1.2224   1.2283   1.2437
     1.2674   1.2797   1.2978   1.3062   1.3389   1.3536   1.3763   1.3974
[...]
     0.2707   0.3000   0.3162   0.3324   0.4034   0.4276   0.4665   0.5054
     0.6856   0.7169   0.7616   0.7890   0.8228   0.8347   0.8628   0.8794
     0.9036   0.9103   0.9493   0.9657   0.9825   1.0084   1.0365   1.0496
     1.0977   1.1055   1.1259   1.1389   1.1529   1.1720   1.1909   1.1961
     1.3140   1.3248   1.3497   1.3848   1.3961   1.4020   1.4181   1.4275
     1.4423   1.4604   1.4692   1.5056   1.5169   1.5318   1.5529   1.5668
     1.5760   1.6063   1.6194   1.6445   1.6763   1.6861   1.7044   1.7410

          k =-0.3765 0.3709-0.3776 (310373 PWs)   bands (ev):

   -17.8926 -17.8370 -17.8263 -17.7963 -17.7945 -17.7901 -17.7747 -17.7741
   -15.6713 -15.6253 -15.6090 -15.5721 -15.5626 -15.5571 -15.5551 -15.5315
   -14.2807 -14.2749 -14.2516 -14.2484 -14.2465 -14.2405 -14.2394 -14.2357
   -14.2342 -14.2280 -14.2238 -14.2229 -14.2216 -14.2161 -14.2130 -14.2117
   -14.2093 -14.2089 -14.2068 -14.2065 -14.2026 -14.1952 -14.1946 -14.1923
   -14.1917 -14.1879 -14.1865 -14.1857 -14.1847 -14.1799 -14.1793 -14.1765
   -14.1730 -14.1700 -14.1587 -14.1558 -14.1490 -14.1429 -14.1407 -14.1384
    -9.7255  -9.6991  -9.6754  -9.6453  -9.6131  -9.5967  -9.5758  -9.5683
    -9.4093  -9.3858  -9.3686  -9.3577  -9.3420  -9.2970  -9.2869  -9.2662
    -9.1600  -9.1268  -9.1159  -9.0821  -9.0734  -9.0547  -9.0495  -9.0370
    -9.0148  -8.9996  -8.9841  -8.9635  -8.9529  -8.9265  -8.8900  -8.8533
    -7.7192  -7.6807  -7.6395  -7.6186  -7.6130  -7.6036  -7.6009  -7.5872
    -7.0395  -6.9855  -6.9785  -6.9701  -6.9536  -6.9392  -6.9321  -6.8999
    -5.5028  -5.4059  -5.3719  -5.3429  -5.3377  -5.3317  -5.3099  -5.2753
    -5.2646  -5.2513  -5.2405  -5.2296  -5.1634  -5.1212  -5.1121  -4.9652
    -3.8304  -3.7808  -3.7647  -3.7565  -3.7478  -3.7411  -3.7299  -3.7276
    -3.2834  -3.2372  -3.2352  -3.2116  -3.2059  -3.1978  -3.1930  -3.1776
    -0.4782  -0.4418  -0.4160  -0.3996  -0.3572  -0.3194  -0.3145  -0.2887
    -0.2666  -0.2408  -0.1758  -0.1611  -0.1249  -0.0952  -0.0640  -0.0460
    -0.0201  -0.0046   0.0026   0.0530   0.1511   0.1937   0.2119   0.2516
     0.2714   0.3070   0.3307   0.3455   0.4020   0.4266   0.4511   0.4739
     0.6989   0.7210   0.7661   0.7799   0.8073   0.8301   0.8481   0.8743
     0.9117   0.9322   0.9432   0.9770   0.9937   1.0024   1.0334   1.0504
     1.0881   1.1062   1.1326   1.1391   1.1492   1.1579   1.1652   1.2261
     1.3028   1.3240   1.3515   1.3771   1.3910   1.3951   1.4206   1.4383
     1.4514   1.4594   1.4776   1.5073   1.5181   1.5328   1.5532   1.5702
     1.5873   1.6000   1.6291   1.6389   1.6685   1.6836   1.7033   1.7280

          k = 0.3765-0.3709-0.3776 (310373 PWs)   bands (ev):

   -17.8926 -17.8370 -17.8263 -17.7963 -17.7945 -17.7901 -17.7747 -17.7741
   -15.6713 -15.6253 -15.6090 -15.5721 -15.5626 -15.5571 -15.5551 -15.5315
   -14.2807 -14.2749 -14.2516 -14.2484 -14.2465 -14.2405 -14.2394 -14.2357
   -14.2342 -14.2280 -14.2238 -14.2229 -14.2216 -14.2161 -14.2130 -14.2117
   -14.2093 -14.2089 -14.2068 -14.2065 -14.2026 -14.1952 -14.1946 -14.1923
   -14.1917 -14.1879 -14.1865 -14.1857 -14.1847 -14.1799 -14.1793 -14.1765
   -14.1730 -14.1700 -14.1587 -14.1558 -14.1490 -14.1429 -14.1407 -14.1384
    -9.7267  -9.6993  -9.6713  -9.6464  -9.6191  -9.5970  -9.5709  -9.5663
    -9.4212  -9.3775  -9.3663  -9.3564  -9.3413  -9.3039  -9.2804  -9.2688
    -9.1594  -9.1260  -9.1117  -9.0899  -9.0674  -9.0633  -9.0465  -9.0344
    -9.0196  -9.0005  -8.9753  -8.9708  -8.9492  -8.9234  -8.8953  -8.8516
    -7.7191  -7.6814  -7.6396  -7.6184  -7.6128  -7.6032  -7.6007  -7.5873
    -7.0395  -6.9855  -6.9785  -6.9703  -6.9536  -6.9391  -6.9321  -6.8999
    -5.5042  -5.4066  -5.3707  -5.3523  -5.3370  -5.3219  -5.2938  -5.2782
    -5.2622  -5.2561  -5.2531  -5.2333  -5.1574  -5.1288  -5.1054  -4.9652
    -3.8304  -3.7814  -3.7648  -3.7556  -3.7481  -3.7412  -3.7300  -3.7271
    -3.2834  -3.2377  -3.2348  -3.2114  -3.2058  -3.1981  -3.1929  -3.1774
    -0.4758  -0.4436  -0.4192  -0.3813  -0.3657  -0.3294  -0.3099  -0.2845
    -0.2618  -0.2387  -0.1945  -0.1568  -0.1371  -0.0928  -0.0792  -0.0357
    -0.0211  -0.0121   0.0114   0.0523   0.1620   0.1952   0.2244   0.2431
     0.2803   0.3176   0.3371   0.3616   0.3855   0.4048   0.4400   0.4829
     0.7132   0.7231   0.7524   0.7677   0.8030   0.8278   0.8636   0.8971
     0.9096   0.9262   0.9375   0.9643   0.9915   1.0061   1.0237   1.0497
     1.0944   1.1079   1.1122   1.1370   1.1545   1.1625   1.1873   1.2095
     1.3123   1.3282   1.3409   1.3756   1.3938   1.4059   1.4218   1.4322
     1.4515   1.4779   1.4933   1.5003   1.5200   1.5315   1.5482   1.5609
     1.5787   1.5955   1.6196   1.6414   1.6700   1.6812   1.7004   1.7388

     highest occupied level (ev):     2.1484

!    total energy              =  -16707.47722478 Ry
     Harris-Foulkes estimate   =  -16707.47722480 Ry
     estimated scf accuracy    <       0.00000003 Ry

     total all-electron energy =   -678114.536909 Ry

     The total energy is the sum of the following terms:

     one-electron contribution =    -940.57113641 Ry
     hartree contribution      =     670.45034887 Ry
     xc contribution           =    -795.81968794 Ry
     ewald contribution        =   -1222.89955921 Ry
     DFT-D3 Dispersion         =      -0.64826754 Ry
     one-center paw contrib.   =  -14417.98892254 Ry

     convergence has been achieved in   9 iterations

     Forces acting on atoms (cartesian axes, Ry/au):

     atom    1 type  1   force =     0.00068413    0.00044176    0.00052415
     atom    2 type  1   force =     0.00102719    0.00056435    0.00138513
     atom    3 type  1   force =    -0.00039217    0.00078515    0.00016707
     atom    4 type  1   force =     0.00188361   -0.00019764   -0.00081698
     atom    5 type  1   force =     0.00015624    0.00027022   -0.00007378
     atom    6 type  1   force =    -0.00038619   -0.00133820   -0.00067539
     atom    7 type  1   force =    -0.00097918   -0.00044749   -0.00057611
     atom    8 type  1   force =    -0.00037605   -0.00030674   -0.00046607
     atom    9 type  2   force =     0.00005512   -0.00052182    0.00066707
     atom   10 type  2   force =    -0.00105900    0.00014902    0.00022301
     atom   11 type  2   force =    -0.00039413   -0.00022258    0.00013312
     atom   12 type  2   force =    -0.00147686    0.00106275    0.00020014
     atom   13 type  2   force =     0.00012807   -0.00047828    0.00027815
     atom   14 type  2   force =     0.00065277    0.00024675    0.00074212
     atom   15 type  2   force =     0.00009703    0.00035369    0.00087464
     atom   16 type  2   force =     0.00016064    0.00070192    0.00014774
     atom   17 type  2   force =    -0.00051966   -0.00052134    0.00086533
     atom   18 type  2   force =    -0.00050696   -0.00091516   -0.00102217
     atom   19 type  2   force =     0.00027968   -0.00056086   -0.00009400
     atom   20 type  2   force =     0.00108882    0.00038821   -0.00092710
     atom   21 type  2   force =     0.00016819   -0.00026247    0.00015439
     atom   22 type  2   force =    -0.00076159    0.00053012    0.00027009
     atom   23 type  2   force =     0.00113253    0.00127060    0.00066676
     atom   24 type  2   force =     0.00008695   -0.00036215    0.00075284
     atom   25 type  2   force =     0.00004250   -0.00063025    0.00019887
     atom   26 type  2   force =     0.00027323   -0.00040268   -0.00092446
     atom   27 type  2   force =     0.00061001   -0.00021809   -0.00007209
     atom   28 type  2   force =    -0.00122355    0.00008113   -0.00039550
     atom   29 type  2   force =     0.00013900   -0.00001159    0.00062727
     atom   30 type  2   force =     0.00006405   -0.00029460    0.00004606
     atom   31 type  2   force =     0.00036438    0.00037192   -0.00078921
     atom   32 type  2   force =    -0.00025354   -0.00036163   -0.00041312
     atom   33 type  3   force =     0.00237247    0.00172406    0.00344102
     atom   34 type  3   force =    -0.00144243    0.00008920   -0.00047771
     atom   35 type  3   force =    -0.00126391   -0.00027013    0.00042117
     atom   36 type  3   force =     0.00245716    0.00223656    0.00063003
     atom   37 type  3   force =     0.00246725    0.00302713    0.00060045
     atom   38 type  3   force =    -0.00347697    0.00163858   -0.00197954
     atom   39 type  3   force =    -0.00073859   -0.00032166   -0.00032609
     atom   40 type  3   force =     0.00003373    0.00246992    0.00155958
     atom   41 type  4   force =     0.00004222   -0.00174886   -0.00316836
     atom   42 type  4   force =    -0.00108464    0.00033243   -0.00020574
     atom   43 type  4   force =     0.00291397    0.00022490   -0.00032675
     atom   44 type  4   force =    -0.00037910   -0.00016600   -0.00193902
     atom   45 type  4   force =    -0.00159597   -0.00336078   -0.00128145
     atom   46 type  4   force =     0.00314543   -0.00119549   -0.00153565
     atom   47 type  4   force =    -0.00042212    0.00047148   -0.00082438
     atom   48 type  4   force =    -0.00012256   -0.00028408   -0.00135563
     atom   49 type  4   force =    -0.00225247    0.00041592   -0.00351366
     atom   50 type  4   force =    -0.00183354    0.00123025    0.00002974
     atom   51 type  4   force =     0.00202591   -0.00055484   -0.00090011
     atom   52 type  4   force =    -0.00020155   -0.00029077    0.00103474
     atom   53 type  4   force =    -0.00278255   -0.00068914    0.00054573
     atom   54 type  4   force =     0.00096288   -0.00190735    0.00197394
     atom   55 type  4   force =    -0.00038382    0.00068324    0.00083252
     atom   56 type  4   force =    -0.00082313   -0.00094452    0.00130237
     atom   57 type  5   force =    -0.00019219   -0.00063900   -0.00035489
     atom   58 type  5   force =     0.00100237    0.00015259    0.00053321
     atom   59 type  5   force =    -0.00235991    0.00104659    0.00147587
     atom   60 type  5   force =    -0.00182134    0.00028405   -0.00094400
     atom   61 type  5   force =     0.00030709    0.00124577    0.00050618
     atom   62 type  5   force =     0.00036470    0.00056387    0.00042071
     atom   63 type  5   force =    -0.00038500    0.00073032    0.00189287
     atom   64 type  5   force =    -0.00085685   -0.00022667   -0.00037338
     atom   65 type  5   force =     0.00015157    0.00118934    0.00168468
     atom   66 type  5   force =     0.00136181   -0.00155236   -0.00021645
     atom   67 type  5   force =     0.00033363    0.00182101    0.00000705
     atom   68 type  5   force =    -0.00178394    0.00251807   -0.00037044
     atom   69 type  5   force =    -0.00094631    0.00023279   -0.00181610
     atom   70 type  5   force =     0.00021758    0.00197233    0.00105232
     atom   71 type  5   force =    -0.00080440    0.00165244    0.00039315
     atom   72 type  5   force =     0.00025001   -0.00007908   -0.00018576
     atom   73 type  5   force =     0.00117110    0.00109366    0.00261965
     atom   74 type  5   force =     0.00139789    0.00016905    0.00106545
     atom   75 type  5   force =    -0.00158755    0.00035011    0.00092990
     atom   76 type  5   force =     0.00052005   -0.00177262    0.00174131
     atom   77 type  5   force =     0.00222847   -0.00119448    0.00049084
     atom   78 type  5   force =     0.00118716   -0.00158362   -0.00032269
     atom   79 type  5   force =    -0.00021945   -0.00146247    0.00065059
     atom   80 type  5   force =     0.00149144   -0.00046388   -0.00066595
     atom   81 type  5   force =    -0.00013794   -0.00064908    0.00047905
     atom   82 type  5   force =     0.00146593    0.00136509    0.00200185
     atom   83 type  5   force =     0.00217945   -0.00054611   -0.00192443
     atom   84 type  5   force =     0.00086538   -0.00047122   -0.00168428
     atom   85 type  5   force =     0.00202854    0.00106393    0.00148877
     atom   86 type  5   force =     0.00026964    0.00006527   -0.00082493
     atom   87 type  5   force =     0.00170363    0.00078337   -0.00196843
     atom   88 type  5   force =     0.00099904    0.00115956   -0.00215283
     atom   89 type  5   force =    -0.00231731   -0.00035552   -0.00225149
     atom   90 type  5   force =    -0.00056615   -0.00172570   -0.00258782
     atom   91 type  5   force =    -0.00162838   -0.00146876   -0.00038103
     atom   92 type  5   force =    -0.00005186   -0.00140225    0.00082487
     atom   93 type  5   force =    -0.00173422   -0.00211634   -0.00101588
     atom   94 type  5   force =    -0.00253980    0.00009046    0.00196339
     atom   95 type  5   force =     0.00076827   -0.00275895    0.00011912
     atom   96 type  5   force =    -0.00071511   -0.00105561    0.00148479

     Total force =     0.020656     Total SCF correction =     0.000501


     Computing stress (Cartesian axis) and pressure

          total   stress  (Ry/bohr**3)                   (kbar)     P=    0.09
  -0.00000222  -0.00000025  -0.00000486         -0.33     -0.04     -0.72
  -0.00000025   0.00000471   0.00000148         -0.04      0.69      0.22
  -0.00000486   0.00000148  -0.00000058         -0.72      0.22     -0.09


     number of scf cycles    =  30
     number of bfgs steps    =  29

     enthalpy old            =  -16707.4768030933 Ry
     enthalpy new            =  -16707.4772247786 Ry

     CASE: enthalpy_new < enthalpy_old

     new trust radius        =       0.1526693674 bohr
     new conv_thr            =       0.0000000351 Ry

     new unit-cell volume =  13877.86772 a.u.^3 (  2056.48780 Ang^3 )
     density =      4.09370 g/cm^3

CELL_PARAMETERS (angstrom)
  12.670252839   0.000000000   0.000000000
   0.000000000  12.862925869   0.000000000
   0.000000000   0.000000000  12.618306972

ATOMIC_POSITIONS (crystal)
Pb      -0.017919245  -0.025333182   0.009907256
Pb       0.479141497  -0.015309899   0.002440253
Pb      -0.019919125   0.478557324   0.008910468
Pb       0.023066357  -0.014286739   0.511896417
Pb       0.481794014   0.482893928  -0.002909891
Pb       0.023171772   0.482079104   0.506147720
Pb       0.524913543  -0.012748532   0.499723336
Pb       0.523134474   0.487085512   0.499961247
I        0.232236978  -0.009253433  -0.046227615
I        0.733061929  -0.007372028   0.045707250
I        0.232839918   0.490700478   0.049148251
I        0.274277431  -0.036510733   0.531304924
I        0.733145861   0.494019714  -0.054440609
I        0.271482128   0.479689227   0.459108662
I        0.772752003  -0.021860656   0.475093126
I        0.771918271   0.467485562   0.540210815
I       -0.030127446   0.232837982   0.006744798
I        0.469482873   0.236283899   0.005330564
I       -0.030516659   0.732350478   0.007978223
I        0.040608141   0.231778658   0.505624520
I        0.462821605   0.735980758   0.001351499
I        0.030645486   0.729915675   0.512700543
I        0.532766645   0.233522485   0.503420708
I        0.540200289   0.734504180   0.491575923
I        0.034448085  -0.029530743   0.257968751
I        0.459737787  -0.006562972   0.252997863
I       -0.049964260   0.483640634   0.258646227
I       -0.043267511  -0.013820069   0.758623122
I        0.551206169   0.479392775   0.245530304
I        0.047578718   0.477534865   0.758079514
I        0.531343505  -0.024480474   0.753844921
I        0.455054883   0.474287192   0.746797467
C        0.234495692   0.255994569   0.248565340
C        0.763456408   0.254142249   0.275154891
C        0.251432031   0.724599626   0.303909447
C        0.256153820   0.252191159   0.732690135
C        0.748416220   0.781474858   0.252061477
C        0.253904220   0.764257723   0.752434763
C        0.735035657   0.255598846   0.756422336
C        0.759289112   0.754876834   0.735723909
N        0.203869839   0.195080406   0.170863347
N        0.692929533   0.236402069   0.200967555
N        0.170547139   0.691840400   0.247511189
N        0.184830295   0.232228684   0.805542626
N        0.675694413   0.730230121   0.199324636
N        0.192274479   0.717135586   0.821327719
N        0.704226574   0.200751884   0.838547563
N        0.685434811   0.745006905   0.808370087
N        0.316037029   0.238465714   0.310511661
N        0.845733447   0.195155815   0.294711078
N        0.350246554   0.720947282   0.272912332
N        0.337008693   0.192141484   0.710583758
N        0.826638438   0.737866188   0.304014616
N        0.319571868   0.716680450   0.687851238
N        0.816451836   0.233062317   0.696364090
N        0.838514123   0.690186089   0.723309622
H        0.189336094   0.327063372   0.263112503
H        0.752730887   0.323396463   0.324322756
H        0.235896473   0.758139234   0.381777313
H        0.248691850   0.324461181   0.687981211
H        0.744026514   0.866060200   0.252504106
H        0.249654025   0.848822932   0.747469698
H        0.690092241   0.325247067   0.735724424
H        0.755111331   0.821809104   0.682429946
H        0.241728126   0.127568492   0.151663217
H        0.696308753   0.172974739   0.151800098
H        0.179503714   0.650846401   0.178348198
H        0.187646396   0.166155478   0.851218677
H        0.669979346   0.650809589   0.201417951
H        0.186237337   0.637949714   0.825752075
H        0.741252091   0.134093842   0.862400032
H        0.684797234   0.683939541   0.860694189
H        0.139567656   0.213896226   0.124976458
H        0.631397900   0.287084408   0.191910899
H        0.096802671   0.696839721   0.278633093
H        0.124154649   0.283588358   0.815613014
H        0.619008346   0.768754515   0.157059548
H        0.142783697   0.758842550   0.869212306
H        0.639459656   0.223536435   0.881298126
H        0.625830665   0.798522136   0.811507716
H        0.363770430   0.174634502   0.301269079
H        0.861143077   0.128454873   0.253481383
H        0.371541165   0.695274960   0.199299079
H        0.350737335   0.123951828   0.749503913
H        0.839894278   0.659253675   0.302784366
H        0.334571292   0.638510843   0.693021617
H        0.862222743   0.168489310   0.709928337
H        0.847118415   0.625965429   0.770098861
H        0.333780239   0.290041641   0.369621766
H        0.896687511   0.214156784   0.354988610
H        0.408565855   0.744621113   0.323642955
H        0.390126607   0.214212596   0.653432827
H        0.877689359   0.783118899   0.346484560
H        0.364549539   0.758532223   0.635767077
H        0.833923713   0.281472694   0.634563537
H        0.893435353   0.703440613   0.665085708



     Writing output data file FAPbI83_vcrelax11.save/
     NEW-OLD atomic charge density approx. for the potential
     extrapolated charge  430.90528, renormalised to  432.00000

     total cpu time spent up to now is   591100.2 secs

     Self-consistent Calculation

     iteration #  1     ecut=   120.00 Ry     beta= 0.70
     Davidson diagonalization with overlap
     ethr =  1.00E-06,  avg # of iterations =  6.0

     total cpu time spent up to now is   594805.8 secs

     total energy              =  -16707.46726660 Ry
     Harris-Foulkes estimate   =  -16709.23223327 Ry
     estimated scf accuracy    <       0.01434010 Ry

     iteration #  2     ecut=   120.00 Ry     beta= 0.70
     Davidson diagonalization with overlap
     ethr =  3.32E-06,  avg # of iterations =  3.0

     total cpu time spent up to now is   597306.2 secs

     total energy              =  -16707.47553366 Ry
     Harris-Foulkes estimate   =  -16707.48296094 Ry
     estimated scf accuracy    <       0.01599634 Ry

     iteration #  3     ecut=   120.00 Ry     beta= 0.70
     Davidson diagonalization with overlap
     ethr =  3.32E-06,  avg # of iterations =  2.0

     total cpu time spent up to now is   599058.4 secs

     total energy              =  -16707.47749919 Ry
     Harris-Foulkes estimate   =  -16707.47773014 Ry
     estimated scf accuracy    <       0.00106233 Ry

     iteration #  4     ecut=   120.00 Ry     beta= 0.70
     Davidson diagonalization with overlap
