
     Program PWSCF v.6.4 starts on  4Jul2020 at 17:31:57 

     This program is part of the open-source Quantum ESPRESSO suite
     for quantum simulation of materials; please cite
         "P. Giannozzi et al., J. Phys.:Condens. Matter 21 395502 (2009);
         "P. Giannozzi et al., J. Phys.:Condens. Matter 29 465901 (2017);
          URL http://www.quantum-espresso.org", 
     in publications or presentations arising from this work. More details at
     http://www.quantum-espresso.org/quote

     Parallel version (MPI), running on    32 processors

     MPI processes distributed on     1 nodes
     R & G space division:  proc/nbgrp/npool/nimage =      32
     Waiting for input...
     Reading input from standard input
     Message from routine read_cards :
     DEPRECATED: no units specified in CELL_PARAMETERS card

     Current dimensions of program PWSCF are:
     Max number of different atomic species (ntypx) = 10
     Max number of k-points (npk) =  40000
     Max angular momentum in pseudopotentials (lmaxx) =  3
               file Pb.pbe-dn-kjpaw_psl.1.0.0.UPF: wavefunction(s)  6S 6P 5D renormalized
               file I.pbe-n-kjpaw_psl.1.0.0.UPF: wavefunction(s)  5S renormalized
               file C.pbe-n-kjpaw_psl.1.0.0.UPF: wavefunction(s)  2S 2P renormalized
               file N.pbe-n-kjpaw_psl.1.0.0.UPF: wavefunction(s)  2S renormalized
               file H.pbe-kjpaw_psl.1.0.0.UPF: wavefunction(s)  1S renormalized

     --------------------------------------------
     Parameters for DFT-D3 Dispersion Correction:
     --------------------------------------------
       Reference C6 values for interpolation: 

         atom   Coordination number   C6
         H          0.912             6.05
         H          0.000            15.18
         C          0.000            98.23
         C          0.987            86.49
         C          1.998            58.72
         C          2.999            51.56
         C          3.984            36.41
         N          0.000            50.54
         N          0.994            44.25
         N          2.014            39.35
         N          2.990            31.16
         I          0.000           703.93
         I          0.997           717.00
         Pb         0.000          1477.63
         Pb         0.938          1266.00
         Pb         1.936          1088.91
         Pb         2.908          1048.37
         Pb         3.910           910.57

       Values used:

         atom   Coordination number  R0_AB[au]  C6      C8
         Pb         4.771            4.041    910.57 144158.49
         Pb         4.837            4.041    910.57 144158.34
         Pb         4.698            4.041    910.58 144158.79
         Pb         4.815            4.041    910.57 144158.38
         Pb         4.673            4.041    910.58 144158.94
         Pb         4.755            4.041    910.57 144158.55
         Pb         4.830            4.041    910.57 144158.35
         Pb         4.720            4.041    910.57 144158.68
         I          1.933            3.532    717.00  65855.99
         I          1.967            3.532    717.00  65856.00
         I          1.818            3.532    717.00  65855.97
         I          1.935            3.532    717.00  65855.99
         I          1.866            3.532    717.00  65855.98
         I          1.902            3.532    717.00  65855.99
         I          1.990            3.532    717.00  65856.00
         I          1.942            3.532    717.00  65855.99
         I          1.874            3.532    717.00  65855.99
         I          1.909            3.532    717.00  65855.99
         I          1.937            3.532    717.00  65855.99
         I          1.968            3.532    717.00  65856.00
         I          1.904            3.532    717.00  65855.99
         I          1.956            3.532    717.00  65856.00
         I          1.928            3.532    717.00  65855.99
         I          1.914            3.532    717.00  65855.99
         I          1.890            3.532    717.00  65855.99
         I          1.950            3.532    717.00  65856.00
         I          1.931            3.532    717.00  65855.99
         I          1.956            3.532    717.00  65856.00
         I          1.857            3.532    717.00  65855.98
         I          1.869            3.532    717.00  65855.98
         I          1.992            3.532    717.00  65856.00
         I          1.926            3.532    717.00  65855.99
         C          3.066            2.750     51.07   1476.91
         C          3.071            2.750     51.05   1476.32
         C          3.069            2.750     51.05   1476.58
         C          3.072            2.750     51.04   1476.04
         C          3.079            2.750     51.00   1475.06
         C          3.069            2.750     51.05   1476.47
         C          3.069            2.750     51.05   1476.57
         C          3.067            2.750     51.06   1476.79
         N          3.103            2.478     31.23    689.03
         N          3.098            2.478     31.24    689.08
         N          3.113            2.478     31.23    688.91
         N          3.102            2.478     31.23    689.04
         N          3.099            2.478     31.24    689.07
         N          3.100            2.478     31.23    689.06
         N          3.105            2.478     31.23    689.00
         N          3.105            2.478     31.23    689.00
         N          3.098            2.478     31.24    689.09
         N          3.105            2.478     31.23    689.01
         N          3.101            2.478     31.23    689.05
         N          3.106            2.478     31.23    688.99
         N          3.103            2.478     31.23    689.03
         N          3.099            2.478     31.23    689.07
         N          3.100            2.478     31.23    689.06
         N          3.107            2.478     31.23    688.97
         H          1.016            2.062      6.17     74.55
         H          1.018            2.062      6.17     74.53
         H          1.018            2.062      6.17     74.54
         H          1.017            2.062      6.17     74.54
         H          1.024            2.062      6.16     74.47
         H          1.021            2.062      6.16     74.50
         H          1.017            2.062      6.17     74.54
         H          1.015            2.062      6.17     74.56
         H          1.027            2.062      6.16     74.45
         H          1.052            2.062      6.14     74.23
         H          1.057            2.062      6.14     74.20
         H          1.051            2.062      6.14     74.24
         H          1.054            2.062      6.14     74.22
         H          1.049            2.062      6.14     74.26
         H          1.034            2.062      6.15     74.39
         H          1.045            2.062      6.15     74.29
         H          1.075            2.062      6.13     74.07
         H          1.044            2.062      6.15     74.30
         H          1.042            2.062      6.15     74.31
         H          1.051            2.062      6.14     74.24
         H          1.030            2.062      6.16     74.42
         H          1.033            2.062      6.15     74.39
         H          1.059            2.062      6.14     74.18
         H          1.059            2.062      6.14     74.18
         H          1.042            2.062      6.15     74.32
         H          1.024            2.062      6.16     74.47
         H          1.026            2.062      6.16     74.46
         H          1.028            2.062      6.16     74.43
         H          1.056            2.062      6.14     74.21
         H          1.050            2.062      6.14     74.25
         H          1.053            2.062      6.14     74.23
         H          1.025            2.062      6.16     74.46
         H          1.038            2.062      6.15     74.35
         H          1.071            2.062      6.13     74.10
         H          1.039            2.062      6.15     74.34
         H          1.071            2.062      6.13     74.10
         H          1.044            2.062      6.15     74.30
         H          1.043            2.062      6.15     74.31
         H          1.044            2.062      6.15     74.30
         H          1.087            2.062      6.12     74.00

         Molecular C6 ( Ry / a.u.^6 ) =   1270632.48


     Subspace diagonalization in iterative solution of the eigenvalue problem:
     a serial algorithm will be used


     Parallelization info
     --------------------
     sticks:   dense  smooth     PW     G-vecs:    dense   smooth      PW
     Min         697     697    179                77727    77727   10169
     Max         698     698    180                77729    77729   10172
     Sum       22307   22307   5755              2487289  2487289  325455



     bravais-lattice index     =            0
     lattice parameter (alat)  =      23.7198  a.u.
     unit-cell volume          =   14004.8379 (a.u.)^3
     number of atoms/cell      =           96
     number of atomic types    =            5
     number of electrons       =       432.00
     number of Kohn-Sham states=          216
     kinetic-energy cutoff     =     120.0000  Ry
     charge density cutoff     =     480.0000  Ry
     convergence threshold     =      1.0E-07
     mixing beta               =       0.7000
     number of iterations used =            8  plain     mixing
     Exchange-correlation      = SLA PW PBX PBC ( 1  4  3  4 0 0)
     nstep                     =          100


     celldm(1)=  23.719842  celldm(2)=   0.000000  celldm(3)=   0.000000
     celldm(4)=   0.000000  celldm(5)=   0.000000  celldm(6)=   0.000000

     crystal axes: (cart. coord. in units of alat)
               a(1) = (   1.012133   0.000000   0.000000 )  
               a(2) = (   0.000000   1.025237   0.000000 )  
               a(3) = (   0.000000   0.000000   1.011302 )  

     reciprocal axes: (cart. coord. in units 2 pi/alat)
               b(1) = (  0.988012  0.000000  0.000000 )  
               b(2) = (  0.000000  0.975384  0.000000 )  
               b(3) = (  0.000000  0.000000  0.988825 )  


     PseudoPot. # 1 for Pb read from file:
     ../../../Pseudopotential/Pb.pbe-dn-kjpaw_psl.1.0.0.UPF
     MD5 check sum: 684fc8fbce61a260853528575e4d9ab7
     Pseudo is Projector augmented-wave + core cor, Zval = 14.0
     Generated using "atomic" code by A. Dal Corso v.6.3
     Shape of augmentation charge: PSQ
     Using radial grid of 1281 points,  6 beta functions with: 
                l(1) =   0
                l(2) =   0
                l(3) =   1
                l(4) =   1
                l(5) =   2
                l(6) =   2
     Q(r) pseudized with 0 coefficients 


     PseudoPot. # 2 for I  read from file:
     ../../../Pseudopotential/I.pbe-n-kjpaw_psl.1.0.0.UPF
     MD5 check sum: cd3d296c3308a581e1559a0c8a554cb5
     Pseudo is Projector augmented-wave + core cor, Zval =  7.0
     Generated using "atomic" code by A. Dal Corso v.6.3
     Shape of augmentation charge: PSQ
     Using radial grid of 1247 points,  6 beta functions with: 
                l(1) =   0
                l(2) =   0
                l(3) =   1
                l(4) =   1
                l(5) =   2
                l(6) =   2
     Q(r) pseudized with 0 coefficients 


     PseudoPot. # 3 for C  read from file:
     ../../../Pseudopotential/C.pbe-n-kjpaw_psl.1.0.0.UPF
     MD5 check sum: 5f16ad9a65e90284d1d834d4ab3b0f7d
     Pseudo is Projector augmented-wave + core cor, Zval =  4.0
     Generated using "atomic" code by A. Dal Corso v.6.3
     Shape of augmentation charge: PSQ
     Using radial grid of 1073 points,  4 beta functions with: 
                l(1) =   0
                l(2) =   0
                l(3) =   1
                l(4) =   1
     Q(r) pseudized with 0 coefficients 


     PseudoPot. # 4 for N  read from file:
     ../../../Pseudopotential/N.pbe-n-kjpaw_psl.1.0.0.UPF
     MD5 check sum: 14c48229446f9f2d411169a3abcbc3fa
     Pseudo is Projector augmented-wave + core cor, Zval =  5.0
     Generated using "atomic" code by A. Dal Corso v.6.3
     Shape of augmentation charge: PSQ
     Using radial grid of 1085 points,  4 beta functions with: 
                l(1) =   0
                l(2) =   0
                l(3) =   1
                l(4) =   1
     Q(r) pseudized with 0 coefficients 


     PseudoPot. # 5 for H  read from file:
     ../../../Pseudopotential/H.pbe-kjpaw_psl.1.0.0.UPF
     MD5 check sum: d81a744832360e4a8af0b0b5b123bc2a
     Pseudo is Projector augmented-wave, Zval =  1.0
     Generated using "atomic" code by A. Dal Corso v.6.3MaX
     Shape of augmentation charge: PSQ
     Using radial grid of  929 points,  2 beta functions with: 
                l(1) =   0
                l(2) =   0
     Q(r) pseudized with 0 coefficients 


     atomic species   valence    mass     pseudopotential
        Pb            14.00   207.97600     Pb( 1.00)
        I              7.00   126.90400     I ( 1.00)
        C              4.00    12.00000     C ( 1.00)
        N              5.00    14.00300     N ( 1.00)
        H              1.00     1.00700     H ( 1.00)

     No symmetry found



   Cartesian axes

     site n.     atom                  positions (alat units)
         1           Pb  tau(   1) = (  -0.0123327  -0.0243020   0.0077818  )
         2           Pb  tau(   2) = (   0.4924659  -0.0190533   0.0022207  )
         3           Pb  tau(   3) = (  -0.0146099   0.4940676   0.0101880  )
         4           Pb  tau(   4) = (   0.0233991  -0.0189231   0.5178242  )
         5           Pb  tau(   5) = (   0.4933369   0.4949217  -0.0039292  )
         6           Pb  tau(   6) = (   0.0207979   0.4898788   0.5117309  )
         7           Pb  tau(   7) = (   0.5321229  -0.0183593   0.5089567  )
         8           Pb  tau(   8) = (   0.5264565   0.4975279   0.5058309  )
         9           I   tau(   9) = (   0.2395623  -0.0097851  -0.0415118  )
        10           I   tau(  10) = (   0.7458721  -0.0045186   0.0439789  )
        11           I   tau(  11) = (   0.2381293   0.5001597   0.0599179  )
        12           I   tau(  12) = (   0.2749014  -0.0309117   0.5323166  )
        13           I   tau(  13) = (   0.7453561   0.5020530  -0.0533286  )
        14           I   tau(  14) = (   0.2755551   0.4858219   0.4658468  )
        15           I   tau(  15) = (   0.7813353  -0.0176716   0.4856900  )
        16           I   tau(  16) = (   0.7820119   0.4734794   0.5457742  )
        17           I   tau(  17) = (  -0.0295850   0.2388589   0.0082741  )
        18           I   tau(  18) = (   0.4759535   0.2379985   0.0087565  )
        19           I   tau(  19) = (  -0.0311932   0.7510573   0.0023619  )
        20           I   tau(  20) = (   0.0434745   0.2355613   0.5093165  )
        21           I   tau(  21) = (   0.4756648   0.7509787  -0.0009275  )
        22           I   tau(  22) = (   0.0250431   0.7472713   0.5173915  )
        23           I   tau(  23) = (   0.5392280   0.2370523   0.5096887  )
        24           I   tau(  24) = (   0.5484996   0.7498912   0.5102373  )
        25           I   tau(  25) = (   0.0360996  -0.0338941   0.2613030  )
        26           I   tau(  26) = (   0.4753104  -0.0221182   0.2563128  )
        27           I   tau(  27) = (  -0.0514985   0.4959204   0.2610033  )
        28           I   tau(  28) = (  -0.0419819  -0.0190033   0.7670713  )
        29           I   tau(  29) = (   0.5587298   0.4950947   0.2499035  )
        30           I   tau(  30) = (   0.0514061   0.4901020   0.7668102  )
        31           I   tau(  31) = (   0.5395010  -0.0246394   0.7639458  )
        32           I   tau(  32) = (   0.4621169   0.4806867   0.7567577  )
        33           C   tau(  33) = (   0.2389877   0.2574874   0.2538519  )
        34           C   tau(  34) = (   0.7724193   0.2609455   0.2801292  )
        35           C   tau(  35) = (   0.2488781   0.7528594   0.2973385  )
        36           C   tau(  36) = (   0.2615994   0.2575644   0.7420231  )
        37           C   tau(  37) = (   0.7599386   0.8124214   0.2550410  )
        38           C   tau(  38) = (   0.2572283   0.7918396   0.7556038  )
        39           C   tau(  39) = (   0.7424740   0.2588736   0.7644850  )
        40           C   tau(  40) = (   0.7680914   0.7700124   0.7437133  )
        41           N   tau(  41) = (   0.2060091   0.2021063   0.1714478  )
        42           N   tau(  42) = (   0.7012358   0.2413955   0.2057942  )
        43           N   tau(  43) = (   0.1658314   0.6964469   0.2681357  )
        44           N   tau(  44) = (   0.1897888   0.2400525   0.8161504  )
        45           N   tau(  45) = (   0.6728537   0.7620323   0.2262440  )
        46           N   tau(  46) = (   0.1782817   0.7501251   0.8102173  )
        47           N   tau(  47) = (   0.7135549   0.2076061   0.8510099  )
        48           N   tau(  48) = (   0.6969120   0.7623933   0.8201143  )
        49           N   tau(  49) = (   0.3179057   0.2300670   0.3169996  )
        50           N   tau(  50) = (   0.8575980   0.2028919   0.2981168  )
        51           N   tau(  51) = (   0.3459443   0.7384336   0.2609151  )
        52           N   tau(  52) = (   0.3433654   0.1953886   0.7222780  )
        53           N   tau(  53) = (   0.8505376   0.7673247   0.2809255  )
        54           N   tau(  54) = (   0.3326219   0.7366834   0.7085938  )
        55           N   tau(  55) = (   0.8201305   0.2295821   0.7008600  )
        56           N   tau(  56) = (   0.8462042   0.7020701   0.7287394  )
        57           H   tau(  57) = (   0.1983898   0.3325021   0.2711284  )
        58           H   tau(  58) = (   0.7598324   0.3307355   0.3307209  )
        59           H   tau(  59) = (   0.2367553   0.8161226   0.3560791  )
        60           H   tau(  60) = (   0.2523361   0.3290093   0.6931860  )
        61           H   tau(  61) = (   0.7567300   0.8992256   0.2578220  )
        62           H   tau(  62) = (   0.2603985   0.8784747   0.7487386  )
        63           H   tau(  63) = (   0.6993643   0.3315760   0.7437691  )
        64           H   tau(  64) = (   0.7620092   0.8373427   0.6887818  )
        65           H   tau(  65) = (   0.2401470   0.1319923   0.1484780  )
        66           H   tau(  66) = (   0.7070837   0.1774932   0.1551976  )
        67           H   tau(  67) = (   0.1715007   0.6348334   0.2146687  )
        68           H   tau(  68) = (   0.1930054   0.1752293   0.8656673  )
        69           H   tau(  69) = (   0.6650476   0.6806891   0.2248203  )
        70           H   tau(  70) = (   0.1648952   0.6697572   0.8148916  )
        71           H   tau(  71) = (   0.7496032   0.1393070   0.8766577  )
        72           H   tau(  72) = (   0.6974250   0.7010502   0.8739525  )
        73           H   tau(  73) = (   0.1432380   0.2282159   0.1260068  )
        74           H   tau(  74) = (   0.6380924   0.2919602   0.1971694  )
        75           H   tau(  75) = (   0.0953454   0.7076849   0.3066540  )
        76           H   tau(  76) = (   0.1287758   0.2930928   0.8252708  )
        77           H   tau(  77) = (   0.6079399   0.8060659   0.2056230  )
        78           H   tau(  78) = (   0.1235014   0.7977023   0.8466302  )
        79           H   tau(  79) = (   0.6509199   0.2344336   0.8958003  )
        80           H   tau(  80) = (   0.6374101   0.8177212   0.8248587  )
        81           H   tau(  81) = (   0.3611418   0.1616489   0.3069305  )
        82           H   tau(  82) = (   0.8760889   0.1362602   0.2554289  )
        83           H   tau(  83) = (   0.3639614   0.6825837   0.2046949  )
        84           H   tau(  84) = (   0.3583693   0.1273786   0.7641813  )
        85           H   tau(  85) = (   0.8638828   0.6867073   0.2782028  )
        86           H   tau(  86) = (   0.3401408   0.6556993   0.7160398  )
        87           H   tau(  87) = (   0.8645128   0.1622272   0.7139648  )
        88           H   tau(  88) = (   0.8564161   0.6364864   0.7756254  )
        89           H   tau(  89) = (   0.3378643   0.2780435   0.3795474  )
        90           H   tau(  90) = (   0.9094162   0.2226005   0.3580746  )
        91           H   tau(  91) = (   0.4044588   0.7903349   0.2828945  )
        92           H   tau(  92) = (   0.3967162   0.2152998   0.6636886  )
        93           H   tau(  93) = (   0.9133090   0.8157179   0.2992924  )
        94           H   tau(  94) = (   0.3901708   0.7741751   0.6648305  )
        95           H   tau(  95) = (   0.8360389   0.2751257   0.6353193  )
        96           H   tau(  96) = (   0.8990298   0.7134544   0.6675333  )

     number of k points=    32
                       cart. coord. in units 2pi/alat
        k(    1) = (   0.1235015   0.1219230   0.1236031), wk =   0.0625000
        k(    2) = (   0.1235015   0.1219230   0.3708093), wk =   0.0625000
        k(    3) = (   0.1235015   0.3657690   0.1236031), wk =   0.0625000
        k(    4) = (   0.1235015   0.3657690   0.3708093), wk =   0.0625000
        k(    5) = (   0.3705046   0.1219230   0.1236031), wk =   0.0625000
        k(    6) = (   0.3705046   0.1219230   0.3708093), wk =   0.0625000
        k(    7) = (   0.3705046   0.3657690   0.1236031), wk =   0.0625000
        k(    8) = (   0.3705046   0.3657690   0.3708093), wk =   0.0625000
        k(    9) = (  -0.1235015  -0.1219230   0.1236031), wk =   0.0625000
        k(   10) = (  -0.1235015   0.1219230  -0.1236031), wk =   0.0625000
        k(   11) = (   0.1235015  -0.1219230  -0.1236031), wk =   0.0625000
        k(   12) = (  -0.1235015  -0.1219230   0.3708093), wk =   0.0625000
        k(   13) = (  -0.1235015   0.1219230  -0.3708093), wk =   0.0625000
        k(   14) = (   0.1235015  -0.1219230  -0.3708093), wk =   0.0625000
        k(   15) = (  -0.1235015  -0.3657690   0.1236031), wk =   0.0625000
        k(   16) = (  -0.1235015   0.3657690  -0.1236031), wk =   0.0625000
        k(   17) = (   0.1235015  -0.3657690  -0.1236031), wk =   0.0625000
        k(   18) = (  -0.1235015  -0.3657690   0.3708093), wk =   0.0625000
        k(   19) = (  -0.1235015   0.3657690  -0.3708093), wk =   0.0625000
        k(   20) = (   0.1235015  -0.3657690  -0.3708093), wk =   0.0625000
        k(   21) = (  -0.3705046  -0.1219230   0.1236031), wk =   0.0625000
        k(   22) = (  -0.3705046   0.1219230  -0.1236031), wk =   0.0625000
        k(   23) = (   0.3705046  -0.1219230  -0.1236031), wk =   0.0625000
        k(   24) = (  -0.3705046  -0.1219230   0.3708093), wk =   0.0625000
        k(   25) = (  -0.3705046   0.1219230  -0.3708093), wk =   0.0625000
        k(   26) = (   0.3705046  -0.1219230  -0.3708093), wk =   0.0625000
        k(   27) = (  -0.3705046  -0.3657690   0.1236031), wk =   0.0625000
        k(   28) = (  -0.3705046   0.3657690  -0.1236031), wk =   0.0625000
        k(   29) = (   0.3705046  -0.3657690  -0.1236031), wk =   0.0625000
        k(   30) = (  -0.3705046  -0.3657690   0.3708093), wk =   0.0625000
        k(   31) = (  -0.3705046   0.3657690  -0.3708093), wk =   0.0625000
        k(   32) = (   0.3705046  -0.3657690  -0.3708093), wk =   0.0625000

     Dense  grid:  2487289 G-vectors     FFT dimensions: ( 180, 180, 180)

     Estimated max dynamical RAM per process >       1.82 GB

     Estimated total dynamical RAM >      58.27 GB

     Initial potential from superposition of free atoms

     starting charge  431.97851, renormalised to  432.00000
     Starting wfcs are  304 randomized atomic wfcs
     Checking if some PAW data can be deallocated... 

     total cpu time spent up to now is     6797.1 secs

     Self-consistent Calculation

     iteration #  1     ecut=   120.00 Ry     beta= 0.70
     Davidson diagonalization with overlap
     ethr =  1.00E-02,  avg # of iterations =  2.0

     total cpu time spent up to now is    18743.3 secs

     total energy              =  -16705.01227420 Ry
     Harris-Foulkes estimate   =  -16709.28783613 Ry
     estimated scf accuracy    <       6.76839600 Ry

     iteration #  2     ecut=   120.00 Ry     beta= 0.70
     Davidson diagonalization with overlap
     ethr =  1.57E-03,  avg # of iterations =  4.0

     total cpu time spent up to now is    34271.4 secs

     total energy              =  -16706.55168546 Ry
     Harris-Foulkes estimate   =  -16708.64635607 Ry
     estimated scf accuracy    <       3.90598064 Ry

     iteration #  3     ecut=   120.00 Ry     beta= 0.70
     Davidson diagonalization with overlap
     ethr =  9.04E-04,  avg # of iterations =  3.0

     total cpu time spent up to now is    46191.6 secs

     total energy              =  -16707.41764805 Ry
     Harris-Foulkes estimate   =  -16707.48442861 Ry
     estimated scf accuracy    <       0.14538785 Ry

     iteration #  4     ecut=   120.00 Ry     beta= 0.70
     Davidson diagonalization with overlap
     ethr =  3.37E-05,  avg # of iterations =  4.0

     total cpu time spent up to now is    61375.1 secs

     total energy              =  -16707.46115826 Ry
     Harris-Foulkes estimate   =  -16707.48097313 Ry
     estimated scf accuracy    <       0.03939839 Ry

     iteration #  5     ecut=   120.00 Ry     beta= 0.70
     Davidson diagonalization with overlap
     ethr =  9.12E-06,  avg # of iterations =  3.0

     total cpu time spent up to now is    72999.9 secs

     total energy              =  -16707.46865043 Ry
     Harris-Foulkes estimate   =  -16707.46988274 Ry
     estimated scf accuracy    <       0.00229218 Ry

     iteration #  6     ecut=   120.00 Ry     beta= 0.70
     Davidson diagonalization with overlap
     ethr =  5.31E-07,  avg # of iterations =  4.0

     total cpu time spent up to now is    80514.3 secs

     total energy              =  -16707.46929217 Ry
     Harris-Foulkes estimate   =  -16707.46983932 Ry
     estimated scf accuracy    <       0.00121244 Ry

     iteration #  7     ecut=   120.00 Ry     beta= 0.70
     Davidson diagonalization with overlap
     ethr =  2.81E-07,  avg # of iterations =  3.9

     total cpu time spent up to now is    87034.4 secs

     total energy              =  -16707.46955159 Ry
     Harris-Foulkes estimate   =  -16707.46958985 Ry
     estimated scf accuracy    <       0.00008679 Ry

     iteration #  8     ecut=   120.00 Ry     beta= 0.70
     Davidson diagonalization with overlap
     ethr =  2.01E-08,  avg # of iterations =  4.0

     total cpu time spent up to now is    92467.3 secs

     total energy              =  -16707.46957441 Ry
     Harris-Foulkes estimate   =  -16707.46958413 Ry
     estimated scf accuracy    <       0.00002142 Ry

     iteration #  9     ecut=   120.00 Ry     beta= 0.70
     Davidson diagonalization with overlap
     ethr =  4.96E-09,  avg # of iterations =  4.0

     total cpu time spent up to now is   103430.6 secs

     total energy              =  -16707.46957895 Ry
     Harris-Foulkes estimate   =  -16707.46957993 Ry
     estimated scf accuracy    <       0.00000207 Ry

     iteration # 10     ecut=   120.00 Ry     beta= 0.70
     Davidson diagonalization with overlap
     ethr =  4.79E-10,  avg # of iterations =  4.0

     total cpu time spent up to now is   115838.2 secs

     total energy              =  -16707.46957946 Ry
     Harris-Foulkes estimate   =  -16707.46957960 Ry
     estimated scf accuracy    <       0.00000033 Ry

     iteration # 11     ecut=   120.00 Ry     beta= 0.70
     Davidson diagonalization with overlap
     ethr =  7.68E-11,  avg # of iterations =  4.0

     total cpu time spent up to now is   128697.7 secs

     End of self-consistent calculation

          k = 0.1235 0.1219 0.1236 (310882 PWs)   bands (ev):

   -17.9719 -17.9157 -17.9028 -17.8805 -17.8614 -17.8581 -17.8507 -17.8148
   -15.7524 -15.7328 -15.6878 -15.6540 -15.6441 -15.6277 -15.6249 -15.5695
   -14.3579 -14.3484 -14.3203 -14.3171 -14.3131 -14.3108 -14.3072 -14.3019
   -14.2916 -14.2807 -14.2774 -14.2747 -14.2741 -14.2731 -14.2722 -14.2681
   -14.2667 -14.2642 -14.2619 -14.2617 -14.2590 -14.2543 -14.2477 -14.2472
   -14.2445 -14.2428 -14.2410 -14.2403 -14.2396 -14.2373 -14.2351 -14.2325
   -14.2284 -14.2200 -14.2195 -14.2182 -14.2140 -14.2117 -14.2081 -14.2062
    -9.8323  -9.7898  -9.7371  -9.7174  -9.6755  -9.6595  -9.6204  -9.6064
    -9.4976  -9.4898  -9.4248  -9.3882  -9.3584  -9.3213  -9.2993  -9.2600
    -9.2347  -9.1974  -9.1889  -9.1583  -9.1338  -9.1249  -9.0964  -9.0746
    -9.0598  -9.0355  -9.0146  -8.9984  -8.9740  -8.9619  -8.9060  -8.8696
    -7.8155  -7.7488  -7.6982  -7.6884  -7.6739  -7.6602  -7.6565  -7.6339
    -7.1231  -7.1071  -7.0947  -7.0545  -7.0451  -7.0262  -7.0151  -6.9514
    -5.8917  -5.5085  -5.4839  -5.4433  -5.4197  -5.3709  -5.3628  -5.3472
    -5.3384  -5.3199  -5.3118  -5.2867  -5.0583  -5.0096  -5.0003  -4.6114
    -3.9028  -3.8760  -3.8542  -3.8341  -3.8142  -3.8077  -3.7893  -3.7693
    -3.3453  -3.3276  -3.3138  -3.2798  -3.2743  -3.2683  -3.2530  -3.2118
    -0.8997  -0.8702  -0.8231  -0.7670  -0.7413  -0.7186  -0.6993  -0.6617
    -0.6242  -0.5996  -0.5435  -0.5054  -0.2032  -0.1754  -0.1414  -0.1257
    -0.0975  -0.0682  -0.0390  -0.0023   0.3397   0.4025   0.4350   0.4637
     0.4818   0.5002   0.5228   0.5428   0.5696   0.6193   0.6631   0.7285
     0.7611   0.7870   0.8360   0.8546   0.8737   0.9033   0.9298   0.9536
     0.9779   1.0029   1.0117   1.0302   1.0410   1.0560   1.0737   1.0829
     1.0976   1.1244   1.1436   1.1656   1.1752   1.1911   1.2156   1.2344
     1.2496   1.2657   1.2833   1.2928   1.3133   1.3228   1.3491   1.3912
     1.4023   1.4323   1.4443   1.4555   1.4863   1.5036   1.5600   1.5855
     1.6425   1.6807   1.6931   1.7347   1.7783   1.8213   1.8428   2.0858

          k = 0.1235 0.1219 0.3708 (310895 PWs)   bands (ev):

   -17.9719 -17.9157 -17.9028 -17.8805 -17.8613 -17.8581 -17.8508 -17.8148
   -15.7524 -15.7328 -15.6878 -15.6540 -15.6439 -15.6278 -15.6251 -15.5695
   -14.3577 -14.3483 -14.3203 -14.3171 -14.3130 -14.3108 -14.3070 -14.3016
   -14.2914 -14.2806 -14.2774 -14.2752 -14.2741 -14.2731 -14.2719 -14.2684
   -14.2670 -14.2642 -14.2620 -14.2616 -14.2590 -14.2545 -14.2478 -14.2474
   -14.2445 -14.2430 -14.2410 -14.2403 -14.2396 -14.2373 -14.2351 -14.2325
   -14.2284 -14.2200 -14.2195 -14.2182 -14.2140 -14.2117 -14.2081 -14.2062
    -9.8149  -9.7815  -9.7386  -9.7154  -9.6843  -9.6705  -9.6429  -9.6125
    -9.5000  -9.4671  -9.4223  -9.3905  -9.3634  -9.3228  -9.3082  -9.2846
    -9.2411  -9.2140  -9.1623  -9.1346  -9.1211  -9.1029  -9.0867  -9.0731
    -9.0537  -9.0388  -9.0116  -9.0064  -8.9879  -8.9678  -8.9130  -8.8720
    -7.8156  -7.7489  -7.6968  -7.6890  -7.6727  -7.6609  -7.6582  -7.6338
    -7.1232  -7.1071  -7.0948  -7.0547  -7.0450  -7.0262  -7.0151  -6.9513
    -5.7771  -5.6035  -5.5005  -5.3812  -5.3712  -5.3577  -5.3519  -5.3396
    -5.3227  -5.3147  -5.2945  -5.2854  -5.1739  -5.1325  -4.9184  -4.7412
    -3.9017  -3.8752  -3.8525  -3.8370  -3.8150  -3.8054  -3.7913  -3.7695
    -3.3453  -3.3271  -3.3137  -3.2802  -3.2737  -3.2686  -3.2533  -3.2118
    -0.8681  -0.8113  -0.7511  -0.7249  -0.6855  -0.6413  -0.6314  -0.5629
    -0.4493  -0.4043  -0.3137  -0.2430  -0.1885  -0.1503  -0.1370  -0.1208
    -0.0834  -0.0628  -0.0478  -0.0039   0.1451   0.2178   0.2832   0.3644
     0.3873   0.4151   0.4370   0.4969   0.5074   0.5392   0.5502   0.5832
     0.6218   0.6960   0.8116   0.8324   0.8717   0.8972   0.9054   0.9373
     0.9513   0.9639   0.9956   1.0152   1.0368   1.0441   1.0806   1.0987
     1.1218   1.1313   1.1509   1.1640   1.2018   1.2130   1.2284   1.2432
     1.2589   1.2754   1.2859   1.3042   1.3242   1.3394   1.3555   1.3600
     1.3999   1.4210   1.4296   1.4584   1.4886   1.5079   1.5177   1.5433
     1.6102   1.6363   1.6514   1.6683   1.7302   1.7425   1.8122   1.9448

          k = 0.1235 0.3658 0.1236 (310795 PWs)   bands (ev):

   -17.9719 -17.9157 -17.9028 -17.8805 -17.8614 -17.8581 -17.8507 -17.8148
   -15.7524 -15.7328 -15.6878 -15.6540 -15.6441 -15.6277 -15.6249 -15.5695
   -14.3579 -14.3482 -14.3203 -14.3171 -14.3130 -14.3108 -14.3069 -14.3016
   -14.2915 -14.2809 -14.2774 -14.2749 -14.2741 -14.2731 -14.2722 -14.2685
   -14.2665 -14.2642 -14.2620 -14.2617 -14.2590 -14.2541 -14.2477 -14.2465
   -14.2445 -14.2430 -14.2414 -14.2410 -14.2396 -14.2373 -14.2351 -14.2325
   -14.2284 -14.2200 -14.2195 -14.2182 -14.2140 -14.2117 -14.2081 -14.2062
    -9.8265  -9.7955  -9.7348  -9.7174  -9.6743  -9.6604  -9.6191  -9.6095
    -9.4935  -9.4617  -9.4195  -9.4046  -9.3666  -9.3460  -9.3107  -9.3026
    -9.2345  -9.1929  -9.1681  -9.1588  -9.1223  -9.1071  -9.0808  -9.0673
    -9.0490  -9.0404  -9.0174  -8.9884  -8.9810  -8.9580  -8.9113  -8.8881
    -7.8146  -7.7481  -7.6987  -7.6844  -7.6748  -7.6623  -7.6567  -7.6345
    -7.1229  -7.1071  -7.0946  -7.0540  -7.0453  -7.0267  -7.0151  -6.9514
    -5.7788  -5.5787  -5.5028  -5.3831  -5.3701  -5.3633  -5.3541  -5.3373
    -5.3267  -5.3178  -5.3070  -5.2794  -5.1665  -5.1321  -4.9250  -4.7517
    -3.9012  -3.8756  -3.8543  -3.8340  -3.8152  -3.8076  -3.7895  -3.7694
    -3.3455  -3.3267  -3.3140  -3.2776  -3.2748  -3.2706  -3.2531  -3.2120
    -0.8933  -0.8620  -0.7367  -0.7259  -0.7061  -0.6439  -0.5920  -0.5433
    -0.3962  -0.3565  -0.2980  -0.2141  -0.1821  -0.1524  -0.1396  -0.1142
    -0.1012  -0.0758  -0.0396  -0.0058   0.1853   0.2352   0.3136   0.3405
     0.3891   0.4596   0.4780   0.4967   0.5131   0.5218   0.5379   0.6158
     0.6369   0.6964   0.7334   0.7569   0.8065   0.8535   0.8955   0.9149
     0.9455   0.9905   1.0017   1.0175   1.0406   1.0601   1.0701   1.0936
     1.1079   1.1270   1.1570   1.1763   1.1927   1.2118   1.2217   1.2516
     1.2599   1.2762   1.2907   1.3041   1.3187   1.3464   1.3671   1.3925
     1.3996   1.4217   1.4330   1.4532   1.4801   1.4917   1.5207   1.5394
     1.5647   1.5931   1.6269   1.6753   1.7006   1.7147   1.8358   1.9080

          k = 0.1235 0.3658 0.3708 (310926 PWs)   bands (ev):

   -17.9719 -17.9157 -17.9028 -17.8805 -17.8613 -17.8581 -17.8508 -17.8148
   -15.7524 -15.7328 -15.6878 -15.6540 -15.6439 -15.6278 -15.6251 -15.5695
   -14.3577 -14.3481 -14.3203 -14.3171 -14.3130 -14.3108 -14.3066 -14.3013
   -14.2913 -14.2808 -14.2774 -14.2754 -14.2741 -14.2731 -14.2720 -14.2687
   -14.2667 -14.2642 -14.2621 -14.2616 -14.2590 -14.2542 -14.2478 -14.2468
   -14.2445 -14.2431 -14.2414 -14.2410 -14.2396 -14.2373 -14.2351 -14.2325
   -14.2284 -14.2200 -14.2195 -14.2182 -14.2140 -14.2117 -14.2081 -14.2062
    -9.8111  -9.7842  -9.7367  -9.7146  -9.6818  -9.6730  -9.6433  -9.6136
    -9.4894  -9.4517  -9.4193  -9.4011  -9.3707  -9.3428  -9.3268  -9.3052
    -9.2557  -9.1792  -9.1647  -9.1334  -9.1085  -9.0995  -9.0840  -9.0641
    -9.0511  -9.0338  -9.0155  -8.9992  -8.9889  -8.9531  -8.9206  -8.8910
    -7.8146  -7.7482  -7.6971  -7.6854  -7.6732  -7.6620  -7.6597  -7.6343
    -7.1230  -7.1071  -7.0947  -7.0541  -7.0452  -7.0267  -7.0151  -6.9514
    -5.6679  -5.5210  -5.4999  -5.4415  -5.3742  -5.3671  -5.3550  -5.3415
    -5.3317  -5.3139  -5.2959  -5.2492  -5.2306  -5.0694  -5.0366  -4.8790
    -3.9003  -3.8749  -3.8524  -3.8359  -3.8169  -3.8053  -3.7913  -3.7693
    -3.3455  -3.3264  -3.3141  -3.2780  -3.2743  -3.2710  -3.2534  -3.2121
    -0.8577  -0.7358  -0.6748  -0.6015  -0.4825  -0.4419  -0.3707  -0.3567
    -0.3112  -0.2993  -0.2627  -0.2476  -0.1724  -0.1493  -0.1251  -0.1008
    -0.0912  -0.0682  -0.0451  -0.0079   0.1125   0.1986   0.2153   0.2490
     0.2936   0.3124   0.3285   0.3652   0.4269   0.5060   0.5158   0.5541
     0.6019   0.6451   0.7084   0.7412   0.7682   0.8095   0.8144   0.8404
     0.8589   0.9153   0.9357   0.9783   0.9821   1.0295   1.0398   1.0749
     1.1141   1.1349   1.1448   1.1709   1.2007   1.2210   1.2293   1.2540
     1.2817   1.2995   1.3036   1.3242   1.3374   1.3567   1.3687   1.3845
     1.3937   1.4064   1.4387   1.4512   1.4674   1.4757   1.5104   1.5377
     1.5466   1.5760   1.6042   1.6388   1.6549   1.6825   1.7098   1.7927

          k = 0.3705 0.1219 0.1236 (310926 PWs)   bands (ev):

   -17.9717 -17.9158 -17.9028 -17.8805 -17.8614 -17.8581 -17.8507 -17.8148
   -15.7472 -15.7380 -15.6878 -15.6540 -15.6441 -15.6275 -15.6252 -15.5695
   -14.3576 -14.3482 -14.3203 -14.3171 -14.3135 -14.3108 -14.3072 -14.3019
   -14.2914 -14.2807 -14.2774 -14.2746 -14.2741 -14.2731 -14.2714 -14.2680
   -14.2667 -14.2642 -14.2629 -14.2617 -14.2590 -14.2528 -14.2481 -14.2477
   -14.2445 -14.2434 -14.2410 -14.2409 -14.2396 -14.2373 -14.2351 -14.2325
   -14.2284 -14.2200 -14.2195 -14.2182 -14.2140 -14.2117 -14.2081 -14.2062
    -9.8067  -9.7663  -9.7529  -9.7260  -9.7044  -9.6595  -9.6233  -9.6131
    -9.5114  -9.4817  -9.4154  -9.3794  -9.3622  -9.3359  -9.2953  -9.2636
    -9.2280  -9.2026  -9.1825  -9.1675  -9.1349  -9.1227  -9.1072  -9.0731
    -9.0353  -9.0222  -9.0046  -8.9900  -8.9681  -8.9537  -8.9260  -8.8912
    -7.8119  -7.7546  -7.6981  -7.6881  -7.6741  -7.6608  -7.6574  -7.6340
    -7.1219  -7.1072  -7.0945  -7.0543  -7.0451  -7.0265  -7.0146  -6.9514
    -5.7739  -5.5952  -5.4752  -5.3932  -5.3782  -5.3693  -5.3473  -5.3380
    -5.3213  -5.3161  -5.2973  -5.2822  -5.1814  -5.1368  -4.9137  -4.7474
    -3.9036  -3.8750  -3.8540  -3.8340  -3.8121  -3.8101  -3.7900  -3.7695
    -3.3443  -3.3279  -3.3128  -3.2770  -3.2754  -3.2663  -3.2572  -3.2137
    -0.8688  -0.8094  -0.7691  -0.7652  -0.7035  -0.6658  -0.6407  -0.6008
    -0.4531  -0.3411  -0.2767  -0.2236  -0.1708  -0.1516  -0.1269  -0.1121
    -0.0860  -0.0496  -0.0362  -0.0102   0.1127   0.2307   0.3175   0.3802
     0.4096   0.4458   0.4534   0.4993   0.5138   0.5398   0.5641   0.6121
     0.6638   0.6892   0.7822   0.8176   0.8314   0.8581   0.9066   0.9220
     0.9436   0.9758   0.9949   1.0105   1.0306   1.0532   1.0652   1.0905
     1.1070   1.1356   1.1429   1.1792   1.1893   1.2068   1.2289   1.2461
     1.2506   1.2795   1.2933   1.3089   1.3265   1.3407   1.3699   1.3896
     1.4244   1.4293   1.4539   1.4726   1.4842   1.5021   1.5432   1.5676
     1.6001   1.6078   1.6208   1.6495   1.6782   1.7110   1.8076   1.8906

          k = 0.3705 0.1219 0.3708 (310912 PWs)   bands (ev):

   -17.9717 -17.9158 -17.9028 -17.8805 -17.8613 -17.8581 -17.8508 -17.8148
   -15.7472 -15.7380 -15.6878 -15.6540 -15.6439 -15.6276 -15.6253 -15.5695
   -14.3575 -14.3482 -14.3203 -14.3171 -14.3134 -14.3108 -14.3070 -14.3016
   -14.2911 -14.2805 -14.2774 -14.2751 -14.2741 -14.2731 -14.2711 -14.2683
   -14.2669 -14.2642 -14.2629 -14.2617 -14.2590 -14.2529 -14.2483 -14.2477
   -14.2445 -14.2436 -14.2410 -14.2409 -14.2396 -14.2373 -14.2351 -14.2325
   -14.2284 -14.2200 -14.2195 -14.2182 -14.2140 -14.2117 -14.2081 -14.2062
    -9.7921  -9.7598  -9.7404  -9.7244  -9.7057  -9.6799  -9.6506  -9.6188
    -9.4860  -9.4751  -9.4315  -9.4051  -9.3520  -9.3274  -9.3097  -9.2874
    -9.2316  -9.2134  -9.1613  -9.1366  -9.1196  -9.1081  -9.0904  -9.0712
    -9.0433  -9.0286  -9.0059  -8.9884  -8.9746  -8.9618  -8.9292  -8.8965
    -7.8117  -7.7547  -7.6963  -7.6889  -7.6713  -7.6623  -7.6602  -7.6344
    -7.1219  -7.1071  -7.0944  -7.0544  -7.0449  -7.0265  -7.0147  -6.9514
    -5.6628  -5.5091  -5.4843  -5.4614  -5.3914  -5.3710  -5.3494  -5.3449
    -5.3215  -5.3172  -5.2947  -5.2808  -5.2096  -5.0617  -5.0298  -4.8769
    -3.9025  -3.8741  -3.8524  -3.8368  -3.8122  -3.8087  -3.7921  -3.7696
    -3.3443  -3.3278  -3.3126  -3.2769  -3.2751  -3.2662  -3.2574  -3.2136
    -0.7892  -0.7655  -0.7037  -0.6682  -0.5154  -0.4732  -0.4240  -0.3656
    -0.3440  -0.2788  -0.2580  -0.2055  -0.1685  -0.1500  -0.1197  -0.1015
    -0.0779  -0.0633  -0.0314  -0.0145   0.0904   0.1899   0.2183   0.2494
     0.2976   0.3059   0.3531   0.4069   0.4313   0.4657   0.5033   0.5189
     0.6397   0.7033   0.7341   0.7568   0.8033   0.8134   0.8330   0.8613
     0.9135   0.9303   0.9469   0.9627   0.9890   1.0276   1.0436   1.0677
     1.0995   1.1164   1.1495   1.1688   1.1919   1.2129   1.2318   1.2589
     1.2729   1.2850   1.3091   1.3210   1.3370   1.3428   1.3575   1.3837
     1.3986   1.4165   1.4364   1.4660   1.4737   1.4994   1.5188   1.5409
     1.5562   1.5746   1.6064   1.6432   1.6510   1.6924   1.7236   1.7647

          k = 0.3705 0.3658 0.1236 (310890 PWs)   bands (ev):

   -17.9717 -17.9158 -17.9028 -17.8805 -17.8614 -17.8581 -17.8507 -17.8148
   -15.7472 -15.7380 -15.6878 -15.6540 -15.6441 -15.6275 -15.6252 -15.5695
   -14.3576 -14.3480 -14.3203 -14.3171 -14.3134 -14.3108 -14.3069 -14.3016
   -14.2912 -14.2809 -14.2774 -14.2748 -14.2741 -14.2731 -14.2714 -14.2684
   -14.2664 -14.2642 -14.2630 -14.2618 -14.2590 -14.2528 -14.2477 -14.2468
   -14.2445 -14.2441 -14.2418 -14.2410 -14.2396 -14.2373 -14.2351 -14.2325
   -14.2284 -14.2200 -14.2195 -14.2182 -14.2140 -14.2117 -14.2081 -14.2062
    -9.8040  -9.7689  -9.7503  -9.7255  -9.7036  -9.6607  -9.6234  -9.6116
    -9.5015  -9.4661  -9.4222  -9.3964  -9.3641  -9.3574  -9.2981  -9.2923
    -9.2286  -9.2028  -9.1743  -9.1506  -9.1364  -9.1115  -9.0895  -9.0684
    -9.0405  -9.0132  -9.0018  -8.9815  -8.9686  -8.9538  -8.9334  -8.9069
    -7.8112  -7.7538  -7.6984  -7.6847  -7.6745  -7.6635  -7.6569  -7.6346
    -7.1218  -7.1069  -7.0945  -7.0537  -7.0452  -7.0272  -7.0146  -6.9514
    -5.6648  -5.4989  -5.4776  -5.4581  -5.3932  -5.3763  -5.3485  -5.3425
    -5.3247  -5.3147  -5.2887  -5.2642  -5.2261  -5.0704  -5.0409  -4.8856
    -3.9021  -3.8750  -3.8537  -3.8339  -3.8132  -3.8099  -3.7898  -3.7696
    -3.3444  -3.3275  -3.3126  -3.2764  -3.2754  -3.2677  -3.2572  -3.2139
    -0.8619  -0.7487  -0.6957  -0.6283  -0.5562  -0.4529  -0.3971  -0.3541
    -0.3074  -0.2627  -0.2241  -0.1901  -0.1569  -0.1238  -0.1130  -0.1026
    -0.0884  -0.0534  -0.0452  -0.0147   0.0433   0.1826   0.2183   0.2379
     0.3212   0.3447   0.4025   0.4345   0.4672   0.4775   0.5144   0.5405
     0.5841   0.6638   0.6885   0.7109   0.7753   0.8043   0.8427   0.8713
     0.9049   0.9268   0.9517   0.9671   1.0032   1.0268   1.0655   1.0760
     1.0915   1.1108   1.1292   1.1455   1.1686   1.2050   1.2206   1.2432
     1.2676   1.2817   1.2998   1.3048   1.3301   1.3482   1.3689   1.3866
     1.4014   1.4345   1.4475   1.4695   1.4820   1.5023   1.5199   1.5385
     1.5585   1.5771   1.6054   1.6154   1.6323   1.6454   1.6778   1.7123

          k = 0.3705 0.3658 0.3708 (310927 PWs)   bands (ev):

   -17.9717 -17.9158 -17.9028 -17.8805 -17.8613 -17.8581 -17.8508 -17.8148
   -15.7472 -15.7380 -15.6878 -15.6540 -15.6439 -15.6276 -15.6253 -15.5695
   -14.3575 -14.3480 -14.3203 -14.3171 -14.3133 -14.3108 -14.3066 -14.3013
   -14.2910 -14.2807 -14.2774 -14.2753 -14.2741 -14.2731 -14.2711 -14.2687
   -14.2666 -14.2642 -14.2630 -14.2617 -14.2590 -14.2529 -14.2478 -14.2470
   -14.2446 -14.2442 -14.2418 -14.2410 -14.2396 -14.2373 -14.2351 -14.2325
   -14.2284 -14.2200 -14.2195 -14.2182 -14.2140 -14.2117 -14.2081 -14.2062
    -9.7904  -9.7590  -9.7406  -9.7237  -9.7057  -9.6806  -9.6502  -9.6165
    -9.4812  -9.4569  -9.4205  -9.4022  -9.3887  -9.3505  -9.3357  -9.2928
    -9.2395  -9.1777  -9.1607  -9.1353  -9.1143  -9.1029  -9.0848  -9.0690
    -9.0423  -9.0191  -9.0002  -8.9857  -8.9721  -8.9600  -8.9366  -8.9115
    -7.8110  -7.7538  -7.6967  -7.6857  -7.6718  -7.6643  -7.6603  -7.6348
    -7.1219  -7.1070  -7.0944  -7.0538  -7.0451  -7.0272  -7.0147  -6.9514
    -5.5578  -5.4801  -5.4176  -5.3950  -5.3813  -5.3723  -5.3488  -5.3340
    -5.3309  -5.3171  -5.3052  -5.2829  -5.2130  -5.1708  -5.1559  -5.0115
    -3.9011  -3.8742  -3.8520  -3.8359  -3.8137  -3.8084  -3.7918  -3.7695
    -3.3444  -3.3275  -3.3126  -3.2761  -3.2754  -3.2677  -3.2572  -3.2139
    -0.5752  -0.5176  -0.4758  -0.4289  -0.4120  -0.3550  -0.3345  -0.3171
    -0.2959  -0.2437  -0.2374  -0.1878  -0.1513  -0.1445  -0.1145  -0.0965
    -0.0811  -0.0618  -0.0358  -0.0148   0.0432   0.1549   0.1722   0.1904
     0.2377   0.2631   0.2757   0.3007   0.3332   0.3744   0.4197   0.4779
     0.6216   0.6881   0.7089   0.7490   0.7763   0.7901   0.8137   0.8322
     0.8667   0.8723   0.8908   0.9118   0.9484   0.9673   0.9988   1.0078
     1.0458   1.0516   1.0820   1.0915   1.1054   1.1352   1.1569   1.1746
     1.2656   1.2885   1.3164   1.3320   1.3467   1.3590   1.3777   1.3850
     1.4012   1.4189   1.4372   1.4553   1.4700   1.4934   1.5157   1.5310
     1.5362   1.5565   1.5784   1.5919   1.6113   1.6215   1.6588   1.6716

          k =-0.1235-0.1219 0.1236 (310882 PWs)   bands (ev):

   -17.9719 -17.9157 -17.9028 -17.8805 -17.8614 -17.8581 -17.8507 -17.8148
   -15.7524 -15.7328 -15.6878 -15.6540 -15.6441 -15.6277 -15.6249 -15.5695
   -14.3579 -14.3484 -14.3203 -14.3171 -14.3131 -14.3108 -14.3072 -14.3019
   -14.2916 -14.2807 -14.2774 -14.2747 -14.2741 -14.2731 -14.2722 -14.2681
   -14.2667 -14.2642 -14.2619 -14.2617 -14.2590 -14.2543 -14.2477 -14.2472
   -14.2445 -14.2428 -14.2410 -14.2403 -14.2396 -14.2373 -14.2351 -14.2325
   -14.2284 -14.2200 -14.2195 -14.2182 -14.2140 -14.2117 -14.2081 -14.2062
    -9.8317  -9.7901  -9.7369  -9.7171  -9.6741  -9.6614  -9.6212  -9.6074
    -9.5082  -9.4800  -9.4223  -9.3854  -9.3506  -9.3359  -9.2944  -9.2533
    -9.2413  -9.1987  -9.1828  -9.1669  -9.1366  -9.1209  -9.0970  -9.0719
    -9.0607  -9.0351  -9.0129  -9.0011  -8.9756  -8.9598  -8.9065  -8.8688
    -7.8155  -7.7489  -7.6981  -7.6888  -7.6735  -7.6605  -7.6563  -7.6337
    -7.1231  -7.1072  -7.0948  -7.0545  -7.0451  -7.0262  -7.0151  -6.9514
    -5.8918  -5.5063  -5.4854  -5.4423  -5.4235  -5.3714  -5.3635  -5.3465
    -5.3395  -5.3187  -5.3118  -5.2839  -5.0582  -5.0091  -5.0010  -4.6116
    -3.9029  -3.8759  -3.8540  -3.8344  -3.8147  -3.8070  -3.7895  -3.7693
    -3.3454  -3.3279  -3.3138  -3.2796  -3.2743  -3.2683  -3.2530  -3.2118
    -0.9129  -0.8663  -0.8140  -0.7619  -0.7433  -0.7197  -0.6937  -0.6635
    -0.6252  -0.6027  -0.5458  -0.5052  -0.1998  -0.1707  -0.1373  -0.1330
    -0.0972  -0.0713  -0.0392  -0.0016   0.3411   0.4078   0.4394   0.4630
     0.4850   0.4949   0.5124   0.5541   0.5676   0.6162   0.6533   0.7371
     0.7515   0.7998   0.8112   0.8482   0.8624   0.9098   0.9300   0.9555
     0.9748   0.9957   1.0123   1.0301   1.0399   1.0588   1.0827   1.0954
     1.1148   1.1220   1.1499   1.1602   1.1805   1.1946   1.2177   1.2317
     1.2504   1.2655   1.2842   1.2942   1.3088   1.3228   1.3509   1.3800
     1.4088   1.4241   1.4353   1.4664   1.4863   1.5083   1.5612   1.5832
     1.6451   1.6761   1.6956   1.7318   1.7797   1.8163   1.8465   2.0853

          k =-0.1235 0.1219-0.1236 (310882 PWs)   bands (ev):

   -17.9719 -17.9157 -17.9028 -17.8805 -17.8614 -17.8581 -17.8507 -17.8148
   -15.7524 -15.7328 -15.6878 -15.6540 -15.6441 -15.6277 -15.6249 -15.5695
   -14.3579 -14.3484 -14.3203 -14.3171 -14.3131 -14.3108 -14.3072 -14.3019
   -14.2916 -14.2807 -14.2774 -14.2747 -14.2741 -14.2731 -14.2722 -14.2681
   -14.2667 -14.2642 -14.2619 -14.2617 -14.2590 -14.2543 -14.2477 -14.2472
   -14.2445 -14.2428 -14.2410 -14.2403 -14.2396 -14.2373 -14.2351 -14.2325
   -14.2284 -14.2200 -14.2195 -14.2182 -14.2140 -14.2117 -14.2081 -14.2062
    -9.8326  -9.7898  -9.7381  -9.7159  -9.6741  -9.6602  -9.6199  -9.6082
    -9.4984  -9.4871  -9.4274  -9.3901  -9.3563  -9.3234  -9.2938  -9.2555
    -9.2363  -9.2072  -9.1824  -9.1675  -9.1302  -9.1180  -9.1008  -9.0727
    -9.0616  -9.0339  -9.0182  -8.9930  -8.9786  -8.9598  -8.9061  -8.8693
    -7.8154  -7.7489  -7.6982  -7.6885  -7.6735  -7.6605  -7.6566  -7.6339
    -7.1230  -7.1072  -7.0947  -7.0545  -7.0451  -7.0261  -7.0151  -6.9514
    -5.8917  -5.5091  -5.4832  -5.4455  -5.4236  -5.3674  -5.3636  -5.3472
    -5.3394  -5.3185  -5.3095  -5.2841  -5.0593  -5.0086  -5.0017  -4.6123
    -3.9027  -3.8759  -3.8544  -3.8340  -3.8147  -3.8071  -3.7895  -3.7692
    -3.3453  -3.3277  -3.3137  -3.2802  -3.2742  -3.2681  -3.2529  -3.2118
    -0.8936  -0.8649  -0.8101  -0.7607  -0.7461  -0.7239  -0.6983  -0.6746
    -0.6308  -0.6037  -0.5478  -0.5075  -0.2024  -0.1797  -0.1366  -0.1319
    -0.0961  -0.0671  -0.0366  -0.0033   0.3400   0.4134   0.4349   0.4653
     0.4839   0.5013   0.5224   0.5530   0.5695   0.6188   0.6663   0.7166
     0.7398   0.7964   0.8301   0.8562   0.8966   0.9148   0.9363   0.9433
     0.9755   0.9797   0.9996   1.0226   1.0367   1.0531   1.0737   1.0948
     1.1099   1.1250   1.1478   1.1694   1.1837   1.1987   1.2198   1.2426
     1.2457   1.2610   1.2733   1.2953   1.3030   1.3170   1.3456   1.3908
     1.4055   1.4252   1.4488   1.4627   1.4915   1.5079   1.5622   1.5824
     1.6525   1.6846   1.6933   1.7461   1.7635   1.8077   1.8435   2.0685

          k = 0.1235-0.1219-0.1236 (310882 PWs)   bands (ev):

   -17.9719 -17.9157 -17.9028 -17.8805 -17.8614 -17.8581 -17.8507 -17.8148
   -15.7524 -15.7328 -15.6878 -15.6540 -15.6441 -15.6277 -15.6249 -15.5695
   -14.3579 -14.3484 -14.3203 -14.3171 -14.3131 -14.3108 -14.3072 -14.3019
   -14.2916 -14.2807 -14.2774 -14.2747 -14.2741 -14.2731 -14.2722 -14.2681
   -14.2667 -14.2642 -14.2619 -14.2617 -14.2590 -14.2543 -14.2477 -14.2472
   -14.2445 -14.2428 -14.2410 -14.2403 -14.2396 -14.2373 -14.2351 -14.2325
   -14.2284 -14.2200 -14.2195 -14.2182 -14.2140 -14.2117 -14.2081 -14.2062
    -9.8321  -9.7890  -9.7390  -9.7160  -9.6743  -9.6604  -9.6206  -9.6099
    -9.5076  -9.4755  -9.4238  -9.3905  -9.3497  -9.3331  -9.2898  -9.2606
    -9.2370  -9.2056  -9.1880  -9.1607  -9.1300  -9.1223  -9.0970  -9.0774
    -9.0598  -9.0319  -9.0163  -8.9945  -8.9781  -8.9604  -8.9062  -8.8693
    -7.8155  -7.7490  -7.6983  -7.6882  -7.6740  -7.6598  -7.6569  -7.6337
    -7.1230  -7.1072  -7.0948  -7.0545  -7.0451  -7.0261  -7.0151  -6.9514
    -5.8920  -5.5088  -5.4850  -5.4442  -5.4201  -5.3684  -5.3634  -5.3481
    -5.3369  -5.3199  -5.3113  -5.2860  -5.0577  -5.0099  -5.0009  -4.6122
    -3.9028  -3.8756  -3.8547  -3.8338  -3.8146  -3.8072  -3.7895  -3.7692
    -3.3454  -3.3280  -3.3137  -3.2799  -3.2743  -3.2679  -3.2529  -3.2117
    -0.9102  -0.8441  -0.8142  -0.7669  -0.7421  -0.7275  -0.6954  -0.6698
    -0.6319  -0.6035  -0.5475  -0.5067  -0.2053  -0.1779  -0.1412  -0.1284
    -0.0973  -0.0660  -0.0367  -0.0032   0.3401   0.4132   0.4344   0.4662
     0.4849   0.4999   0.5182   0.5472   0.5688   0.6309   0.6728   0.7278
     0.7519   0.7795   0.8256   0.8487   0.8813   0.9139   0.9362   0.9451
     0.9651   0.9896   0.9961   1.0133   1.0434   1.0599   1.0839   1.0938
     1.1066   1.1331   1.1550   1.1640   1.1831   1.1976   1.2098   1.2410
     1.2506   1.2671   1.2771   1.2889   1.3078   1.3240   1.3434   1.3851
     1.4109   1.4328   1.4383   1.4600   1.4888   1.5124   1.5591   1.5808
     1.6551   1.6791   1.6934   1.7462   1.7625   1.8123   1.8400   2.0717

          k =-0.1235-0.1219 0.3708 (310895 PWs)   bands (ev):

   -17.9719 -17.9157 -17.9028 -17.8805 -17.8613 -17.8581 -17.8508 -17.8148
   -15.7524 -15.7328 -15.6878 -15.6540 -15.6439 -15.6278 -15.6251 -15.5695
   -14.3577 -14.3483 -14.3203 -14.3171 -14.3130 -14.3108 -14.3070 -14.3016
   -14.2914 -14.2806 -14.2774 -14.2752 -14.2741 -14.2731 -14.2719 -14.2684
   -14.2670 -14.2642 -14.2620 -14.2616 -14.2590 -14.2545 -14.2478 -14.2474
   -14.2445 -14.2430 -14.2410 -14.2403 -14.2396 -14.2373 -14.2351 -14.2325
   -14.2284 -14.2200 -14.2195 -14.2182 -14.2140 -14.2117 -14.2081 -14.2062
    -9.8137  -9.7824  -9.7388  -9.7139  -9.6825  -9.6730  -9.6444  -9.6133
    -9.5076  -9.4555  -9.4242  -9.3895  -9.3573  -9.3334  -9.3084  -9.2742
    -9.2486  -9.2109  -9.1677  -9.1353  -9.1213  -9.1014  -9.0872  -9.0678
    -9.0549  -9.0372  -9.0177  -9.0048  -8.9903  -8.9644  -8.9136  -8.8712
    -7.8156  -7.7490  -7.6966  -7.6894  -7.6723  -7.6614  -7.6579  -7.6336
    -7.1232  -7.1071  -7.0948  -7.0546  -7.0450  -7.0261  -7.0151  -6.9513
    -5.7772  -5.6023  -5.5016  -5.3807  -5.3707  -5.3616  -5.3463  -5.3436
    -5.3298  -5.3133  -5.3002  -5.2708  -5.1722  -5.1360  -4.9178  -4.7418
    -3.9018  -3.8751  -3.8523  -3.8374  -3.8154  -3.8047  -3.7916  -3.7695
    -3.3453  -3.3274  -3.3137  -3.2800  -3.2737  -3.2686  -3.2533  -3.2118
    -0.8706  -0.8133  -0.7493  -0.7252  -0.6792  -0.6515  -0.6231  -0.5678
    -0.4514  -0.3930  -0.3218  -0.2381  -0.1730  -0.1524  -0.1424  -0.1183
    -0.0855  -0.0682  -0.0469   0.0016   0.1328   0.2197   0.2735   0.3634
     0.3930   0.4265   0.4379   0.4852   0.5049   0.5440   0.5590   0.5829
     0.6193   0.6794   0.8082   0.8236   0.8620   0.8982   0.9163   0.9354
     0.9595   0.9730   0.9878   1.0072   1.0461   1.0585   1.0841   1.0901
     1.1248   1.1318   1.1590   1.1741   1.1985   1.2069   1.2291   1.2492
     1.2576   1.2697   1.2827   1.2956   1.3241   1.3382   1.3548   1.3726
     1.3965   1.4203   1.4237   1.4624   1.4859   1.5127   1.5248   1.5378
     1.6125   1.6338   1.6482   1.6656   1.7273   1.7477   1.8122   1.9440

          k =-0.1235 0.1219-0.3708 (310895 PWs)   bands (ev):

   -17.9719 -17.9157 -17.9028 -17.8805 -17.8613 -17.8581 -17.8508 -17.8148
   -15.7524 -15.7328 -15.6878 -15.6540 -15.6439 -15.6278 -15.6251 -15.5695
   -14.3577 -14.3483 -14.3203 -14.3171 -14.3130 -14.3108 -14.3070 -14.3016
   -14.2914 -14.2806 -14.2774 -14.2752 -14.2741 -14.2731 -14.2719 -14.2684
   -14.2670 -14.2642 -14.2620 -14.2616 -14.2590 -14.2545 -14.2478 -14.2474
   -14.2445 -14.2430 -14.2410 -14.2403 -14.2396 -14.2373 -14.2351 -14.2325
   -14.2284 -14.2200 -14.2195 -14.2182 -14.2140 -14.2117 -14.2081 -14.2062
    -9.8144  -9.7826  -9.7380  -9.7152  -9.6839  -9.6705  -9.6426  -9.6148
    -9.4954  -9.4679  -9.4270  -9.3870  -9.3606  -9.3317  -9.3037  -9.2789
    -9.2466  -9.2147  -9.1652  -9.1357  -9.1127  -9.1018  -9.0932  -9.0686
    -9.0554  -9.0394  -9.0121  -9.0057  -8.9896  -8.9670  -8.9129  -8.8715
    -7.8155  -7.7490  -7.6966  -7.6893  -7.6718  -7.6618  -7.6581  -7.6339
    -7.1231  -7.1072  -7.0947  -7.0546  -7.0450  -7.0261  -7.0151  -6.9514
    -5.7769  -5.6036  -5.5010  -5.3879  -5.3695  -5.3583  -5.3497  -5.3403
    -5.3286  -5.3109  -5.2952  -5.2741  -5.1756  -5.1333  -4.9187  -4.7424
    -3.9016  -3.8751  -3.8523  -3.8372  -3.8157  -3.8048  -3.7915  -3.7694
    -3.3452  -3.3272  -3.3136  -3.2807  -3.2736  -3.2684  -3.2533  -3.2118
    -0.8501  -0.7988  -0.7634  -0.7312  -0.6813  -0.6468  -0.6388  -0.5700
    -0.4570  -0.3998  -0.3199  -0.2402  -0.1796  -0.1594  -0.1391  -0.1187
    -0.0796  -0.0592  -0.0512  -0.0020   0.1366   0.2262   0.2764   0.3635
     0.3978   0.4198   0.4381   0.4917   0.5078   0.5421   0.5572   0.5793
     0.6356   0.6756   0.8070   0.8317   0.8719   0.8950   0.9186   0.9284
     0.9626   0.9781   1.0060   1.0139   1.0346   1.0426   1.0705   1.0843
     1.1088   1.1267   1.1632   1.1751   1.2045   1.2216   1.2260   1.2373
     1.2613   1.2651   1.2863   1.2962   1.3176   1.3327   1.3459   1.3771
     1.3999   1.4196   1.4333   1.4586   1.4939   1.5090   1.5320   1.5452
     1.6204   1.6444   1.6479   1.6730   1.7263   1.7528   1.7901   1.9181

          k = 0.1235-0.1219-0.3708 (310895 PWs)   bands (ev):

   -17.9719 -17.9157 -17.9028 -17.8805 -17.8613 -17.8581 -17.8508 -17.8148
   -15.7524 -15.7328 -15.6878 -15.6540 -15.6439 -15.6278 -15.6251 -15.5695
   -14.3577 -14.3483 -14.3203 -14.3171 -14.3130 -14.3108 -14.3070 -14.3016
   -14.2914 -14.2806 -14.2774 -14.2752 -14.2741 -14.2731 -14.2719 -14.2684
   -14.2670 -14.2642 -14.2620 -14.2616 -14.2590 -14.2545 -14.2478 -14.2474
   -14.2445 -14.2430 -14.2410 -14.2403 -14.2396 -14.2373 -14.2351 -14.2325
   -14.2284 -14.2200 -14.2195 -14.2182 -14.2140 -14.2117 -14.2081 -14.2062
    -9.8136  -9.7815  -9.7403  -9.7142  -9.6835  -9.6712  -9.6444  -9.6154
    -9.5045  -9.4513  -9.4240  -9.3918  -9.3609  -9.3384  -9.2951  -9.2770
    -9.2572  -9.2115  -9.1666  -9.1274  -9.1230  -9.1021  -9.0920  -9.0683
    -9.0550  -9.0351  -9.0142  -9.0050  -8.9900  -8.9670  -8.9131  -8.8715
    -7.8156  -7.7490  -7.6968  -7.6890  -7.6725  -7.6607  -7.6587  -7.6336
    -7.1231  -7.1071  -7.0948  -7.0547  -7.0450  -7.0261  -7.0152  -6.9514
    -5.7776  -5.6028  -5.5014  -5.3835  -5.3674  -5.3593  -5.3483  -5.3396
    -5.3282  -5.3153  -5.2978  -5.2796  -5.1700  -5.1342  -4.9188  -4.7423
    -3.9017  -3.8749  -3.8528  -3.8369  -3.8155  -3.8049  -3.7916  -3.7694
    -3.3454  -3.3276  -3.3136  -3.2804  -3.2737  -3.2682  -3.2533  -3.2117
    -0.8520  -0.7998  -0.7601  -0.7339  -0.6846  -0.6509  -0.6359  -0.5704
    -0.4442  -0.3993  -0.3172  -0.2400  -0.1822  -0.1580  -0.1432  -0.1179
    -0.0831  -0.0642  -0.0463  -0.0011   0.1373   0.2117   0.2829   0.3647
     0.3993   0.4273   0.4369   0.4923   0.5102   0.5407   0.5574   0.5827
     0.6284   0.6774   0.7984   0.8259   0.8740   0.9014   0.9155   0.9330
     0.9588   0.9798   0.9931   1.0048   1.0297   1.0620   1.0831   1.0978
     1.1052   1.1286   1.1543   1.1762   1.2038   1.2113   1.2234   1.2271
     1.2618   1.2720   1.2960   1.3084   1.3170   1.3386   1.3433   1.3760
     1.3945   1.4189   1.4330   1.4625   1.4919   1.5058   1.5270   1.5474
     1.6139   1.6388   1.6519   1.6735   1.7299   1.7519   1.7905   1.9201

          k =-0.1235-0.3658 0.1236 (310795 PWs)   bands (ev):

   -17.9719 -17.9157 -17.9028 -17.8805 -17.8614 -17.8581 -17.8507 -17.8148
   -15.7524 -15.7328 -15.6878 -15.6540 -15.6441 -15.6277 -15.6249 -15.5695
   -14.3579 -14.3482 -14.3203 -14.3171 -14.3130 -14.3108 -14.3069 -14.3016
   -14.2915 -14.2809 -14.2774 -14.2749 -14.2741 -14.2731 -14.2722 -14.2685
   -14.2665 -14.2642 -14.2620 -14.2617 -14.2590 -14.2541 -14.2477 -14.2465
   -14.2445 -14.2430 -14.2414 -14.2410 -14.2396 -14.2373 -14.2351 -14.2325
   -14.2284 -14.2200 -14.2195 -14.2182 -14.2140 -14.2117 -14.2081 -14.2062
    -9.8262  -9.7953  -9.7334  -9.7181  -9.6747  -9.6615  -9.6196  -9.6092
    -9.4988  -9.4617  -9.4189  -9.3970  -9.3717  -9.3356  -9.3214  -9.2919
    -9.2370  -9.1946  -9.1788  -9.1575  -9.1229  -9.1009  -9.0815  -9.0631
    -9.0531  -9.0405  -9.0153  -8.9913  -8.9803  -8.9579  -8.9119  -8.8866
    -7.8147  -7.7483  -7.6985  -7.6850  -7.6741  -7.6629  -7.6565  -7.6343
    -7.1229  -7.1071  -7.0947  -7.0539  -7.0453  -7.0267  -7.0151  -6.9514
    -5.7786  -5.5792  -5.5022  -5.3795  -5.3751  -5.3657  -5.3562  -5.3398
    -5.3275  -5.3181  -5.3021  -5.2720  -5.1673  -5.1343  -4.9245  -4.7522
    -3.9013  -3.8757  -3.8539  -3.8342  -3.8158  -3.8068  -3.7897  -3.7694
    -3.3456  -3.3270  -3.3140  -3.2773  -3.2748  -3.2706  -3.2531  -3.2120
    -0.9070  -0.8497  -0.7477  -0.7205  -0.6933  -0.6459  -0.5896  -0.5463
    -0.3965  -0.3625  -0.2986  -0.2160  -0.1740  -0.1465  -0.1362  -0.1209
    -0.0996  -0.0797  -0.0382  -0.0069   0.1852   0.2355   0.3150   0.3476
     0.3806   0.4569   0.4838   0.5004   0.5020   0.5187   0.5459   0.6098
     0.6431   0.6774   0.7301   0.7643   0.8111   0.8477   0.8898   0.9256
     0.9380   0.9891   1.0043   1.0295   1.0372   1.0494   1.0672   1.0944
     1.1118   1.1304   1.1660   1.1742   1.2000   1.2113   1.2306   1.2380
     1.2717   1.2836   1.2933   1.3005   1.3112   1.3340   1.3678   1.3941
     1.4046   1.4134   1.4403   1.4512   1.4837   1.5003   1.5055   1.5376
     1.5762   1.5919   1.6280   1.6755   1.6972   1.7109   1.8357   1.9082

          k =-0.1235 0.3658-0.1236 (310795 PWs)   bands (ev):

   -17.9719 -17.9157 -17.9028 -17.8805 -17.8614 -17.8581 -17.8507 -17.8148
   -15.7524 -15.7328 -15.6878 -15.6540 -15.6441 -15.6277 -15.6249 -15.5695
   -14.3579 -14.3482 -14.3203 -14.3171 -14.3130 -14.3108 -14.3069 -14.3016
   -14.2915 -14.2809 -14.2774 -14.2749 -14.2741 -14.2731 -14.2722 -14.2685
   -14.2665 -14.2642 -14.2620 -14.2617 -14.2590 -14.2541 -14.2477 -14.2465
   -14.2445 -14.2430 -14.2414 -14.2410 -14.2396 -14.2373 -14.2351 -14.2325
   -14.2284 -14.2200 -14.2195 -14.2182 -14.2140 -14.2117 -14.2081 -14.2062
    -9.8268  -9.7954  -9.7360  -9.7156  -9.6730  -9.6612  -9.6185  -9.6115
    -9.4917  -9.4611  -9.4258  -9.3997  -9.3742  -9.3328  -9.3237  -9.2924
    -9.2334  -9.1912  -9.1786  -9.1588  -9.1270  -9.0924  -9.0837  -9.0679
    -9.0534  -9.0387  -9.0163  -8.9909  -8.9785  -8.9589  -8.9113  -8.8874
    -7.8146  -7.7482  -7.6986  -7.6846  -7.6742  -7.6628  -7.6568  -7.6345
    -7.1228  -7.1072  -7.0946  -7.0540  -7.0453  -7.0267  -7.0151  -6.9515
    -5.7785  -5.5799  -5.5024  -5.3855  -5.3758  -5.3636  -5.3542  -5.3408
    -5.3288  -5.3141  -5.2993  -5.2697  -5.1686  -5.1363  -4.9239  -4.7534
    -3.9011  -3.8756  -3.8541  -3.8342  -3.8156  -3.8071  -3.7897  -3.7693
    -3.3455  -3.3269  -3.3139  -3.2783  -3.2746  -3.2702  -3.2531  -3.2121
    -0.8910  -0.8601  -0.7348  -0.7169  -0.7036  -0.6458  -0.5852  -0.5451
    -0.4030  -0.3745  -0.3089  -0.2251  -0.1763  -0.1596  -0.1415  -0.1201
    -0.0987  -0.0783  -0.0384  -0.0050   0.1981   0.2553   0.3247   0.3512
     0.3972   0.4587   0.4774   0.4910   0.5107   0.5197   0.5435   0.6111
     0.6300   0.6877   0.7246   0.7635   0.8188   0.8399   0.8988   0.9186
     0.9514   0.9764   0.9872   1.0132   1.0419   1.0642   1.0785   1.0913
     1.1159   1.1259   1.1676   1.1807   1.1973   1.2172   1.2243   1.2422
     1.2548   1.2713   1.2856   1.3116   1.3217   1.3360   1.3683   1.3950
     1.4047   1.4134   1.4276   1.4596   1.4829   1.4975   1.5113   1.5523
     1.5607   1.5963   1.6243   1.6786   1.6944   1.7138   1.8420   1.8892

          k = 0.1235-0.3658-0.1236 (310795 PWs)   bands (ev):

   -17.9719 -17.9157 -17.9028 -17.8805 -17.8614 -17.8581 -17.8507 -17.8148
   -15.7524 -15.7328 -15.6878 -15.6540 -15.6441 -15.6277 -15.6249 -15.5695
   -14.3579 -14.3482 -14.3203 -14.3171 -14.3130 -14.3108 -14.3069 -14.3016
   -14.2915 -14.2809 -14.2774 -14.2749 -14.2741 -14.2731 -14.2722 -14.2685
   -14.2665 -14.2642 -14.2620 -14.2617 -14.2590 -14.2541 -14.2477 -14.2465
   -14.2445 -14.2430 -14.2414 -14.2410 -14.2396 -14.2373 -14.2351 -14.2325
   -14.2284 -14.2200 -14.2195 -14.2182 -14.2140 -14.2117 -14.2081 -14.2062
    -9.8268  -9.7940  -9.7360  -9.7164  -9.6750  -9.6604  -9.6188  -9.6117
    -9.4973  -9.4542  -9.4256  -9.4035  -9.3666  -9.3314  -9.3218  -9.2929
    -9.2400  -9.2032  -9.1707  -9.1562  -9.1236  -9.0985  -9.0801  -9.0717
    -9.0515  -9.0377  -9.0145  -8.9911  -8.9787  -8.9590  -8.9117  -8.8873
    -7.8147  -7.7483  -7.6987  -7.6843  -7.6748  -7.6623  -7.6569  -7.6343
    -7.1228  -7.1072  -7.0947  -7.0540  -7.0453  -7.0266  -7.0151  -6.9515
    -5.7790  -5.5797  -5.5027  -5.3884  -5.3724  -5.3607  -5.3521  -5.3379
    -5.3242  -5.3193  -5.3022  -5.2774  -5.1669  -5.1344  -4.9244  -4.7531
    -3.9011  -3.8755  -3.8544  -3.8340  -3.8157  -3.8070  -3.7898  -3.7693
    -3.3456  -3.3272  -3.3140  -3.2780  -3.2748  -3.2700  -3.2531  -3.2119
    -0.9058  -0.8436  -0.7424  -0.7243  -0.6893  -0.6438  -0.5895  -0.5414
    -0.4035  -0.3703  -0.3074  -0.2247  -0.1888  -0.1611  -0.1482  -0.1137
    -0.1026  -0.0735  -0.0360  -0.0040   0.2008   0.2551   0.3241   0.3494
     0.3984   0.4666   0.4742   0.4919   0.5065   0.5241   0.5479   0.6111
     0.6443   0.6761   0.7151   0.7573   0.8264   0.8316   0.8937   0.9209
     0.9446   0.9792   1.0084   1.0155   1.0296   1.0494   1.0833   1.0955
     1.1202   1.1337   1.1536   1.1751   1.1890   1.2157   1.2278   1.2462
     1.2600   1.2831   1.2964   1.3069   1.3255   1.3317   1.3545   1.3979
     1.4055   1.4204   1.4322   1.4645   1.4757   1.4916   1.5230   1.5387
     1.5678   1.5905   1.6286   1.6799   1.6898   1.7102   1.8403   1.8939

          k =-0.1235-0.3658 0.3708 (310926 PWs)   bands (ev):

   -17.9719 -17.9157 -17.9028 -17.8805 -17.8613 -17.8581 -17.8508 -17.8148
   -15.7524 -15.7328 -15.6878 -15.6540 -15.6439 -15.6278 -15.6251 -15.5695
   -14.3577 -14.3481 -14.3203 -14.3171 -14.3130 -14.3108 -14.3066 -14.3013
   -14.2913 -14.2808 -14.2774 -14.2754 -14.2741 -14.2731 -14.2720 -14.2687
   -14.2667 -14.2642 -14.2621 -14.2616 -14.2590 -14.2542 -14.2478 -14.2468
   -14.2445 -14.2431 -14.2414 -14.2410 -14.2396 -14.2373 -14.2351 -14.2325
   -14.2284 -14.2200 -14.2195 -14.2182 -14.2140 -14.2117 -14.2081 -14.2062
    -9.8106  -9.7843  -9.7358  -9.7138  -9.6825  -9.6745  -9.6437  -9.6138
    -9.4950  -9.4495  -9.4205  -9.3979  -9.3631  -9.3449  -9.3295  -9.2945
    -9.2641  -9.1830  -9.1694  -9.1319  -9.1095  -9.0955  -9.0797  -9.0655
    -9.0518  -9.0360  -9.0136  -8.9998  -8.9908  -8.9523  -8.9214  -8.8895
    -7.8147  -7.7483  -7.6969  -7.6860  -7.6723  -7.6630  -7.6591  -7.6341
    -7.1230  -7.1072  -7.0948  -7.0540  -7.0452  -7.0267  -7.0151  -6.9514
    -5.6678  -5.5167  -5.4939  -5.4631  -5.3714  -5.3678  -5.3505  -5.3465
    -5.3210  -5.3125  -5.2831  -5.2641  -5.2309  -5.0723  -5.0328  -4.8801
    -3.9003  -3.8749  -3.8518  -3.8363  -3.8174  -3.8045  -3.7916  -3.7693
    -3.3456  -3.3267  -3.3141  -3.2778  -3.2743  -3.2710  -3.2534  -3.2121
    -0.8598  -0.7389  -0.6734  -0.6018  -0.4744  -0.4352  -0.3763  -0.3485
    -0.3360  -0.2991  -0.2596  -0.2444  -0.1550  -0.1394  -0.1318  -0.1140
    -0.0797  -0.0651  -0.0454  -0.0006   0.1051   0.1671   0.2153   0.2400
     0.2776   0.3188   0.3454   0.3894   0.4263   0.5034   0.5192   0.5538
     0.5994   0.6432   0.7078   0.7170   0.7603   0.8092   0.8269   0.8465
     0.8667   0.8941   0.9475   0.9737   0.9940   1.0240   1.0511   1.0780
     1.1167   1.1365   1.1462   1.1773   1.1906   1.2096   1.2378   1.2574
     1.2831   1.2921   1.3057   1.3309   1.3352   1.3432   1.3672   1.3789
     1.3985   1.4129   1.4361   1.4565   1.4734   1.4850   1.4996   1.5351
     1.5541   1.5772   1.6042   1.6327   1.6516   1.6733   1.7190   1.7919

          k =-0.1235 0.3658-0.3708 (310926 PWs)   bands (ev):

   -17.9719 -17.9157 -17.9028 -17.8805 -17.8613 -17.8581 -17.8508 -17.8148
   -15.7524 -15.7328 -15.6878 -15.6540 -15.6439 -15.6278 -15.6251 -15.5695
   -14.3577 -14.3481 -14.3203 -14.3171 -14.3130 -14.3108 -14.3066 -14.3013
   -14.2913 -14.2808 -14.2774 -14.2754 -14.2741 -14.2731 -14.2720 -14.2687
   -14.2667 -14.2642 -14.2621 -14.2616 -14.2590 -14.2542 -14.2478 -14.2468
   -14.2445 -14.2431 -14.2414 -14.2410 -14.2396 -14.2373 -14.2351 -14.2325
   -14.2284 -14.2200 -14.2195 -14.2182 -14.2140 -14.2117 -14.2081 -14.2062
    -9.8105  -9.7854  -9.7363  -9.7141  -9.6815  -9.6733  -9.6429  -9.6160
    -9.4825  -9.4545  -9.4285  -9.3902  -9.3705  -9.3521  -9.3265  -9.2941
    -9.2626  -9.1788  -9.1678  -9.1333  -9.1114  -9.0935  -9.0777  -9.0696
    -9.0535  -9.0309  -9.0164  -9.0013  -8.9870  -8.9546  -8.9204  -8.8900
    -7.8146  -7.7483  -7.6971  -7.6857  -7.6719  -7.6635  -7.6593  -7.6344
    -7.1229  -7.1072  -7.0947  -7.0541  -7.0452  -7.0266  -7.0151  -6.9515
    -5.6673  -5.5209  -5.4908  -5.4637  -5.3721  -5.3661  -5.3513  -5.3472
    -5.3223  -5.3098  -5.2839  -5.2636  -5.2283  -5.0726  -5.0332  -4.8816
    -3.9002  -3.8748  -3.8519  -3.8362  -3.8176  -3.8047  -3.7915  -3.7693
    -3.3454  -3.3265  -3.3139  -3.2787  -3.2741  -3.2705  -3.2534  -3.2122
    -0.8520  -0.7299  -0.6714  -0.5953  -0.4837  -0.4379  -0.3887  -0.3535
    -0.3419  -0.3071  -0.2597  -0.2524  -0.1710  -0.1366  -0.1299  -0.1082
    -0.0757  -0.0692  -0.0477  -0.0052   0.1080   0.1749   0.2320   0.2539
     0.2891   0.3211   0.3579   0.3789   0.4240   0.4954   0.5140   0.5497
     0.6097   0.6542   0.7079   0.7241   0.7660   0.7851   0.8313   0.8557
     0.8715   0.8910   0.9481   0.9730   0.9949   1.0088   1.0434   1.0768
     1.1001   1.1293   1.1693   1.1717   1.2021   1.2161   1.2383   1.2483
     1.2750   1.2818   1.3132   1.3258   1.3367   1.3517   1.3699   1.3783
     1.4016   1.4137   1.4397   1.4551   1.4682   1.4958   1.5033   1.5313
     1.5539   1.5727   1.6030   1.6393   1.6570   1.6782   1.7146   1.7686

          k = 0.1235-0.3658-0.3708 (310926 PWs)   bands (ev):

   -17.9719 -17.9157 -17.9028 -17.8805 -17.8613 -17.8581 -17.8508 -17.8148
   -15.7524 -15.7328 -15.6878 -15.6540 -15.6439 -15.6278 -15.6251 -15.5695
   -14.3577 -14.3481 -14.3203 -14.3171 -14.3130 -14.3108 -14.3066 -14.3013
   -14.2913 -14.2808 -14.2774 -14.2754 -14.2741 -14.2731 -14.2720 -14.2687
   -14.2667 -14.2642 -14.2621 -14.2616 -14.2590 -14.2542 -14.2478 -14.2468
   -14.2445 -14.2431 -14.2414 -14.2410 -14.2396 -14.2373 -14.2351 -14.2325
   -14.2284 -14.2200 -14.2195 -14.2182 -14.2140 -14.2117 -14.2081 -14.2062
    -9.8106  -9.7833  -9.7373  -9.7142  -9.6837  -9.6726  -9.6436  -9.6159
    -9.4906  -9.4426  -9.4267  -9.3989  -9.3678  -9.3458  -9.3178  -9.3003
    -9.2706  -9.1828  -9.1650  -9.1336  -9.1040  -9.0982  -9.0855  -9.0628
    -9.0523  -9.0344  -9.0132  -8.9984  -8.9907  -8.9534  -8.9215  -8.8898
    -7.8147  -7.7484  -7.6971  -7.6855  -7.6726  -7.6625  -7.6597  -7.6342
    -7.1229  -7.1072  -7.0948  -7.0541  -7.0452  -7.0266  -7.0151  -6.9514
    -5.6684  -5.5201  -5.5011  -5.4433  -5.3775  -5.3652  -5.3513  -5.3412
    -5.3327  -5.3140  -5.2942  -5.2536  -5.2247  -5.0697  -5.0368  -4.8808
    -3.9002  -3.8748  -3.8522  -3.8359  -3.8176  -3.8046  -3.7916  -3.7692
    -3.3456  -3.3269  -3.3140  -3.2784  -3.2744  -3.2703  -3.2534  -3.2120
    -0.8535  -0.7316  -0.6726  -0.5995  -0.4798  -0.4346  -0.3826  -0.3560
    -0.3154  -0.3029  -0.2743  -0.2545  -0.1780  -0.1522  -0.1326  -0.1084
    -0.0860  -0.0703  -0.0442  -0.0023   0.1137   0.1893   0.2336   0.2716
     0.2953   0.3171   0.3381   0.3687   0.4273   0.4932   0.5196   0.5546
     0.6089   0.6499   0.6955   0.7315   0.7484   0.7989   0.8274   0.8403
     0.8768   0.9186   0.9281   0.9783   0.9963   1.0052   1.0530   1.0854
     1.0962   1.1307   1.1555   1.1750   1.1936   1.2076   1.2458   1.2556
     1.2768   1.2935   1.3023   1.3324   1.3410   1.3517   1.3711   1.3829
     1.3956   1.4061   1.4418   1.4563   1.4663   1.4937   1.5104   1.5374
     1.5532   1.5674   1.6026   1.6314   1.6529   1.6766   1.7157   1.7740

          k =-0.3705-0.1219 0.1236 (310926 PWs)   bands (ev):

   -17.9717 -17.9158 -17.9028 -17.8805 -17.8614 -17.8581 -17.8507 -17.8148
   -15.7472 -15.7380 -15.6878 -15.6540 -15.6441 -15.6275 -15.6252 -15.5695
   -14.3576 -14.3482 -14.3203 -14.3171 -14.3135 -14.3108 -14.3072 -14.3019
   -14.2914 -14.2807 -14.2774 -14.2746 -14.2741 -14.2731 -14.2714 -14.2680
   -14.2667 -14.2642 -14.2629 -14.2617 -14.2590 -14.2528 -14.2481 -14.2477
   -14.2445 -14.2434 -14.2410 -14.2409 -14.2396 -14.2373 -14.2351 -14.2325
   -14.2284 -14.2200 -14.2195 -14.2182 -14.2140 -14.2117 -14.2081 -14.2062
    -9.8064  -9.7655  -9.7521  -9.7274  -9.7037  -9.6599  -9.6245  -9.6138
    -9.5184  -9.4769  -9.4089  -9.3770  -9.3602  -9.3388  -9.3040  -9.2491
    -9.2370  -9.2018  -9.1813  -9.1722  -9.1394  -9.1240  -9.1022  -9.0679
    -9.0349  -9.0275  -9.0036  -8.9919  -8.9692  -8.9468  -8.9307  -8.8898
    -7.8119  -7.7547  -7.6980  -7.6883  -7.6740  -7.6607  -7.6574  -7.6338
    -7.1218  -7.1072  -7.0946  -7.0542  -7.0451  -7.0265  -7.0147  -6.9514
    -5.7741  -5.5949  -5.4736  -5.3942  -5.3803  -5.3652  -5.3491  -5.3372
    -5.3257  -5.3152  -5.3037  -5.2752  -5.1802  -5.1357  -4.9140  -4.7479
    -3.9036  -3.8747  -3.8539  -3.8343  -3.8126  -3.8093  -3.7902  -3.7695
    -3.3443  -3.3282  -3.3128  -3.2769  -3.2754  -3.2662  -3.2572  -3.2137
    -0.8729  -0.8134  -0.7714  -0.7531  -0.7044  -0.6671  -0.6444  -0.5964
    -0.4522  -0.3402  -0.2744  -0.2231  -0.1758  -0.1512  -0.1240  -0.1094
    -0.0840  -0.0532  -0.0396  -0.0065   0.1114   0.2288   0.3211   0.3821
     0.4200   0.4358   0.4612   0.4964   0.5177   0.5455   0.5609   0.6051
     0.6241   0.7100   0.7663   0.8056   0.8335   0.8659   0.8959   0.9175
     0.9605   0.9733   0.9914   1.0067   1.0337   1.0544   1.0847   1.1025
     1.1181   1.1360   1.1523   1.1682   1.1923   1.2137   1.2229   1.2383
     1.2637   1.2702   1.2886   1.3070   1.3168   1.3447   1.3828   1.3967
     1.4132   1.4394   1.4513   1.4711   1.4841   1.5033   1.5315   1.5675
     1.5888   1.6081   1.6277   1.6417   1.6862   1.7125   1.8048   1.8921

          k =-0.3705 0.1219-0.1236 (310926 PWs)   bands (ev):

   -17.9717 -17.9158 -17.9028 -17.8805 -17.8614 -17.8581 -17.8507 -17.8148
   -15.7472 -15.7380 -15.6878 -15.6540 -15.6441 -15.6275 -15.6252 -15.5695
   -14.3576 -14.3482 -14.3203 -14.3171 -14.3135 -14.3108 -14.3072 -14.3019
   -14.2914 -14.2807 -14.2774 -14.2746 -14.2741 -14.2731 -14.2714 -14.2680
   -14.2667 -14.2642 -14.2629 -14.2617 -14.2590 -14.2528 -14.2481 -14.2477
   -14.2445 -14.2434 -14.2410 -14.2409 -14.2396 -14.2373 -14.2351 -14.2325
   -14.2284 -14.2200 -14.2195 -14.2182 -14.2140 -14.2117 -14.2081 -14.2062
    -9.8070  -9.7675  -9.7530  -9.7233  -9.7039  -9.6591  -9.6230  -9.6154
    -9.5136  -9.4786  -9.4154  -9.3833  -9.3636  -9.3319  -9.2956  -9.2477
    -9.2308  -9.2172  -9.1837  -9.1719  -9.1317  -9.1177  -9.1073  -9.0685
    -9.0427  -9.0237  -9.0026  -8.9878  -8.9713  -8.9490  -8.9276  -8.8912
    -7.8118  -7.7547  -7.6981  -7.6880  -7.6739  -7.6606  -7.6578  -7.6340
    -7.1217  -7.1073  -7.0945  -7.0542  -7.0451  -7.0264  -7.0147  -6.9515
    -5.7737  -5.5966  -5.4740  -5.3933  -5.3834  -5.3691  -5.3483  -5.3380
    -5.3231  -5.3151  -5.2929  -5.2753  -5.1837  -5.1377  -4.9133  -4.7489
    -3.9035  -3.8747  -3.8543  -3.8340  -3.8127  -3.8094  -3.7902  -3.7695
    -3.3442  -3.3280  -3.3127  -3.2775  -3.2754  -3.2660  -3.2571  -3.2138
    -0.8683  -0.8025  -0.7695  -0.7599  -0.6874  -0.6672  -0.6459  -0.6010
    -0.4754  -0.3503  -0.2846  -0.2161  -0.1833  -0.1603  -0.1346  -0.1083
    -0.0817  -0.0453  -0.0394  -0.0109   0.1268   0.2504   0.3252   0.3812
     0.4259   0.4367   0.4629   0.4860   0.5228   0.5381   0.5638   0.6130
     0.6449   0.7007   0.7648   0.8027   0.8398   0.8636   0.8934   0.9113
     0.9542   0.9819   0.9940   1.0060   1.0337   1.0580   1.0624   1.0950
     1.1263   1.1454   1.1588   1.1748   1.1834   1.2038   1.2233   1.2384
     1.2483   1.2708   1.2908   1.2980   1.3298   1.3529   1.3710   1.3960
     1.4183   1.4250   1.4495   1.4703   1.4946   1.5188   1.5496   1.5634
     1.5768   1.6127   1.6356   1.6513   1.6698   1.7040   1.8186   1.8679

          k = 0.3705-0.1219-0.1236 (310926 PWs)   bands (ev):

   -17.9717 -17.9158 -17.9028 -17.8805 -17.8614 -17.8581 -17.8507 -17.8148
   -15.7472 -15.7380 -15.6878 -15.6540 -15.6441 -15.6275 -15.6252 -15.5695
   -14.3576 -14.3482 -14.3203 -14.3171 -14.3135 -14.3108 -14.3072 -14.3019
   -14.2914 -14.2807 -14.2774 -14.2746 -14.2741 -14.2731 -14.2714 -14.2680
   -14.2667 -14.2642 -14.2629 -14.2617 -14.2590 -14.2528 -14.2481 -14.2477
   -14.2445 -14.2434 -14.2410 -14.2409 -14.2396 -14.2373 -14.2351 -14.2325
   -14.2284 -14.2200 -14.2195 -14.2182 -14.2140 -14.2117 -14.2081 -14.2062
    -9.8061  -9.7645  -9.7545  -9.7256  -9.7051  -9.6593  -9.6240  -9.6156
    -9.5147  -9.4760  -9.4100  -9.3830  -9.3660  -9.3264  -9.2976  -9.2670
    -9.2229  -9.2115  -9.1851  -9.1692  -9.1322  -9.1176  -9.1084  -9.0741
    -9.0367  -9.0220  -9.0025  -8.9892  -8.9740  -8.9438  -8.9317  -8.8904
    -7.8119  -7.7548  -7.6981  -7.6879  -7.6742  -7.6603  -7.6578  -7.6338
    -7.1217  -7.1072  -7.0946  -7.0543  -7.0451  -7.0264  -7.0147  -6.9515
    -5.7741  -5.5962  -5.4743  -5.3940  -5.3840  -5.3643  -5.3523  -5.3323
    -5.3246  -5.3142  -5.2928  -5.2812  -5.1818  -5.1386  -4.9128  -4.7490
    -3.9035  -3.8746  -3.8546  -3.8338  -3.8130  -3.8091  -3.7902  -3.7695
    -3.3443  -3.3283  -3.3128  -3.2771  -3.2755  -3.2658  -3.2571  -3.2136
    -0.8741  -0.7986  -0.7709  -0.7589  -0.6855  -0.6705  -0.6488  -0.5933
    -0.4740  -0.3496  -0.2840  -0.2192  -0.1852  -0.1547  -0.1338  -0.1071
    -0.0873  -0.0479  -0.0362  -0.0104   0.1241   0.2508   0.3243   0.3851
     0.4222   0.4413   0.4627   0.4847   0.5232   0.5398   0.5762   0.5933
     0.6348   0.6933   0.7864   0.8078   0.8467   0.8691   0.8926   0.9231
     0.9370   0.9744   0.9885   0.9966   1.0328   1.0387   1.0856   1.1100
     1.1188   1.1430   1.1575   1.1628   1.1857   1.2048   1.2237   1.2334
     1.2646   1.2725   1.2886   1.3170   1.3235   1.3448   1.3736   1.3870
     1.4212   1.4378   1.4486   1.4706   1.4953   1.5165   1.5387   1.5593
     1.5786   1.6145   1.6263   1.6511   1.6791   1.7031   1.8155   1.8726

          k =-0.3705-0.1219 0.3708 (310912 PWs)   bands (ev):

   -17.9717 -17.9158 -17.9028 -17.8805 -17.8613 -17.8581 -17.8508 -17.8148
   -15.7472 -15.7380 -15.6878 -15.6540 -15.6439 -15.6276 -15.6253 -15.5695
   -14.3575 -14.3482 -14.3203 -14.3171 -14.3134 -14.3108 -14.3070 -14.3016
   -14.2911 -14.2805 -14.2774 -14.2751 -14.2741 -14.2731 -14.2711 -14.2683
   -14.2669 -14.2642 -14.2629 -14.2617 -14.2590 -14.2529 -14.2483 -14.2477
   -14.2445 -14.2436 -14.2410 -14.2409 -14.2396 -14.2373 -14.2351 -14.2325
   -14.2284 -14.2200 -14.2195 -14.2182 -14.2140 -14.2117 -14.2081 -14.2062
    -9.7917  -9.7582  -9.7413  -9.7255  -9.7025  -9.6819  -9.6524  -9.6195
    -9.5041  -9.4500  -9.4288  -9.4120  -9.3502  -9.3281  -9.3137  -9.2803
    -9.2383  -9.2106  -9.1635  -9.1351  -9.1291  -9.1054  -9.0875  -9.0588
    -9.0496  -9.0299  -9.0112  -8.9889  -8.9776  -8.9489  -8.9371  -8.8946
    -7.8118  -7.7548  -7.6962  -7.6891  -7.6713  -7.6618  -7.6605  -7.6342
    -7.1219  -7.1071  -7.0945  -7.0544  -7.0449  -7.0265  -7.0147  -6.9514
    -5.6639  -5.5081  -5.4781  -5.4632  -5.3942  -5.3692  -5.3560  -5.3387
    -5.3347  -5.3138  -5.2987  -5.2735  -5.2047  -5.0613  -5.0302  -4.8780
    -3.9026  -3.8739  -3.8523  -3.8371  -3.8125  -3.8080  -3.7924  -3.7696
    -3.3443  -3.3281  -3.3126  -3.2767  -3.2751  -3.2661  -3.2574  -3.2136
    -0.7932  -0.7612  -0.7036  -0.6683  -0.5427  -0.4513  -0.4211  -0.3787
    -0.3271  -0.2861  -0.2437  -0.1880  -0.1758  -0.1468  -0.1196  -0.1027
    -0.0869  -0.0578  -0.0385   0.0046   0.0778   0.1590   0.2134   0.2548
     0.2755   0.3261   0.3626   0.4079   0.4482   0.4620   0.4958   0.5262
     0.6331   0.6871   0.7265   0.7554   0.7913   0.8194   0.8288   0.8667
     0.9131   0.9291   0.9580   0.9651   0.9967   1.0344   1.0474   1.0715
     1.0992   1.1255   1.1508   1.1713   1.1944   1.2121   1.2282   1.2489
     1.2728   1.2912   1.3077   1.3138   1.3316   1.3467   1.3683   1.3795
     1.4082   1.4199   1.4357   1.4510   1.4775   1.4934   1.5142   1.5353
     1.5479   1.5889   1.6006   1.6394   1.6612   1.6972   1.7201   1.7638

          k =-0.3705 0.1219-0.3708 (310912 PWs)   bands (ev):

   -17.9717 -17.9158 -17.9028 -17.8805 -17.8613 -17.8581 -17.8508 -17.8148
   -15.7472 -15.7380 -15.6878 -15.6540 -15.6439 -15.6276 -15.6253 -15.5695
   -14.3575 -14.3482 -14.3203 -14.3171 -14.3134 -14.3108 -14.3070 -14.3016
   -14.2911 -14.2805 -14.2774 -14.2751 -14.2741 -14.2731 -14.2711 -14.2683
   -14.2669 -14.2642 -14.2629 -14.2617 -14.2590 -14.2529 -14.2483 -14.2477
   -14.2445 -14.2436 -14.2410 -14.2409 -14.2396 -14.2373 -14.2351 -14.2325
   -14.2284 -14.2200 -14.2195 -14.2182 -14.2140 -14.2117 -14.2081 -14.2062
    -9.7917  -9.7617  -9.7403  -9.7227  -9.7042  -9.6808  -9.6506  -9.6209
    -9.4879  -9.4675  -9.4368  -9.4032  -9.3532  -9.3298  -9.3110  -9.2756
    -9.2392  -9.2154  -9.1643  -9.1356  -9.1172  -9.1049  -9.0945  -9.0608
    -9.0486  -9.0351  -9.0022  -8.9918  -8.9721  -8.9606  -8.9297  -8.8962
    -7.8116  -7.7548  -7.6963  -7.6889  -7.6706  -7.6626  -7.6606  -7.6345
    -7.1218  -7.1072  -7.0944  -7.0544  -7.0449  -7.0264  -7.0147  -6.9514
    -5.6626  -5.5103  -5.4833  -5.4634  -5.3913  -5.3733  -5.3493  -5.3418
    -5.3233  -5.3157  -5.2971  -5.2798  -5.2039  -5.0618  -5.0307  -4.8790
    -3.9025  -3.8739  -3.8524  -3.8369  -3.8131  -3.8078  -3.7923  -3.7696
    -3.3442  -3.3279  -3.3124  -3.2775  -3.2750  -3.2658  -3.2573  -3.2136
    -0.7825  -0.7546  -0.6982  -0.6695  -0.5274  -0.4794  -0.4251  -0.3748
    -0.3436  -0.2843  -0.2699  -0.1901  -0.1752  -0.1545  -0.1195  -0.1147
    -0.0735  -0.0596  -0.0387  -0.0085   0.0985   0.1905   0.2220   0.2547
     0.3050   0.3100   0.3698   0.4098   0.4264   0.4599   0.4971   0.5281
     0.6390   0.6942   0.7267   0.7547   0.7995   0.8038   0.8336   0.8696
     0.9227   0.9332   0.9439   0.9775   0.9925   1.0236   1.0327   1.0788
[...]
     1.4157   1.4299   1.4542   1.4634   1.4907   1.4971   1.5272   1.5417
     1.5518   1.5635   1.5940   1.6091   1.6265   1.6521   1.6679   1.6852

          k =-0.3711 0.3660-0.3708 (310927 PWs)   bands (ev):

   -17.9491 -17.9052 -17.8849 -17.8571 -17.8446 -17.8328 -17.8279 -17.7973
   -15.7246 -15.7166 -15.6651 -15.6334 -15.6229 -15.6017 -15.5963 -15.5504
   -14.3354 -14.3280 -14.2982 -14.2957 -14.2916 -14.2906 -14.2892 -14.2784
   -14.2760 -14.2665 -14.2589 -14.2571 -14.2559 -14.2543 -14.2500 -14.2475
   -14.2468 -14.2453 -14.2443 -14.2437 -14.2409 -14.2325 -14.2317 -14.2293
   -14.2286 -14.2267 -14.2248 -14.2241 -14.2221 -14.2193 -14.2138 -14.2096
   -14.2096 -14.2001 -14.1981 -14.1962 -14.1951 -14.1924 -14.1920 -14.1874
    -9.7669  -9.7407  -9.7140  -9.6974  -9.6802  -9.6573  -9.6239  -9.5958
    -9.4539  -9.4284  -9.4130  -9.3850  -9.3752  -9.3400  -9.3157  -9.2776
    -9.2277  -9.1632  -9.1418  -9.1190  -9.1044  -9.0896  -9.0728  -9.0564
    -9.0337  -9.0142  -8.9930  -8.9814  -8.9607  -8.9451  -8.9268  -8.8983
    -7.7941  -7.7479  -7.6826  -7.6706  -7.6541  -7.6456  -7.6385  -7.6248
    -7.0916  -7.0772  -7.0645  -7.0226  -7.0206  -6.9921  -6.9857  -6.9221
    -5.5411  -5.4589  -5.4069  -5.3919  -5.3740  -5.3540  -5.3346  -5.3287
    -5.3156  -5.2903  -5.2736  -5.2568  -5.2025  -5.1487  -5.1457  -4.9998
    -3.8777  -3.8608  -3.8326  -3.8106  -3.7927  -3.7878  -3.7706  -3.7505
    -3.3272  -3.3144  -3.2937  -3.2576  -3.2549  -3.2428  -3.2349  -3.1951
    -0.5308  -0.4887  -0.4414  -0.4298  -0.3798  -0.3532  -0.3323  -0.3133
    -0.2918  -0.2750  -0.2580  -0.1932  -0.1443  -0.1238  -0.1098  -0.0894
    -0.0602  -0.0418  -0.0285   0.0187   0.1195   0.1693   0.1812   0.2376
     0.2518   0.2806   0.3041   0.3225   0.3567   0.3907   0.4204   0.4497
     0.6636   0.6924   0.7172   0.7482   0.7798   0.8024   0.8127   0.8462
     0.8884   0.8931   0.9175   0.9452   0.9634   0.9809   0.9887   1.0209
     1.0676   1.0733   1.0939   1.1095   1.1247   1.1380   1.1592   1.1830
     1.2743   1.2986   1.3323   1.3500   1.3588   1.3718   1.3899   1.4021
     1.4152   1.4372   1.4509   1.4642   1.4859   1.4969   1.5370   1.5426
     1.5552   1.5814   1.5898   1.6028   1.6256   1.6415   1.6587   1.6812

          k = 0.3711-0.3660-0.3708 (310927 PWs)   bands (ev):

   -17.9491 -17.9052 -17.8849 -17.8571 -17.8446 -17.8328 -17.8279 -17.7973
   -15.7246 -15.7166 -15.6651 -15.6334 -15.6229 -15.6017 -15.5963 -15.5504
   -14.3354 -14.3280 -14.2982 -14.2957 -14.2916 -14.2906 -14.2892 -14.2784
   -14.2760 -14.2665 -14.2589 -14.2571 -14.2559 -14.2543 -14.2500 -14.2475
   -14.2468 -14.2453 -14.2443 -14.2437 -14.2409 -14.2325 -14.2317 -14.2293
   -14.2286 -14.2267 -14.2248 -14.2241 -14.2221 -14.2193 -14.2138 -14.2096
   -14.2096 -14.2001 -14.1981 -14.1962 -14.1951 -14.1924 -14.1920 -14.1874
    -9.7669  -9.7377  -9.7098  -9.7027  -9.6849  -9.6571  -9.6233  -9.5949
    -9.4591  -9.4251  -9.4034  -9.3954  -9.3747  -9.3250  -9.3168  -9.2871
    -9.2309  -9.1621  -9.1447  -9.1159  -9.1022  -9.0855  -9.0806  -9.0597
    -9.0288  -9.0117  -8.9977  -8.9779  -8.9600  -8.9430  -8.9329  -8.8961
    -7.7942  -7.7480  -7.6826  -7.6706  -7.6544  -7.6453  -7.6386  -7.6245
    -7.0916  -7.0772  -7.0646  -7.0226  -7.0207  -6.9921  -6.9857  -6.9221
    -5.5427  -5.4592  -5.4130  -5.3887  -5.3688  -5.3487  -5.3386  -5.3173
    -5.3084  -5.2978  -5.2794  -5.2707  -5.1927  -5.1556  -5.1422  -4.9990
    -3.8776  -3.8609  -3.8328  -3.8103  -3.7935  -3.7870  -3.7706  -3.7505
    -3.3274  -3.3147  -3.2939  -3.2577  -3.2546  -3.2427  -3.2349  -3.1950
    -0.5477  -0.4818  -0.4473  -0.4076  -0.3938  -0.3494  -0.3297  -0.3143
    -0.2960  -0.2696  -0.2140  -0.1965  -0.1694  -0.1403  -0.1135  -0.0879
    -0.0728  -0.0403  -0.0215   0.0254   0.1174   0.1576   0.1958   0.2172
     0.2684   0.2909   0.3091   0.3332   0.3611   0.3814   0.3996   0.4561
     0.6635   0.6925   0.7131   0.7433   0.7709   0.8075   0.8178   0.8662
     0.8764   0.8906   0.9127   0.9477   0.9608   0.9775   0.9975   1.0129
     1.0653   1.0765   1.0869   1.1170   1.1223   1.1476   1.1520   1.1919
     1.2742   1.2979   1.3299   1.3509   1.3664   1.3705   1.3854   1.4018
     1.4207   1.4301   1.4520   1.4686   1.4948   1.5004   1.5306   1.5445
     1.5537   1.5613   1.5891   1.6057   1.6228   1.6437   1.6650   1.6809

     highest occupied level (ev):     2.1071

!    total energy              =  -16707.47059301 Ry
     Harris-Foulkes estimate   =  -16707.47059301 Ry
     estimated scf accuracy    <          3.3E-09 Ry

     total all-electron energy =   -678114.530278 Ry

     The total energy is the sum of the following terms:

     one-electron contribution =    -948.55422018 Ry
     hartree contribution      =     673.81820725 Ry
     xc contribution           =    -795.80738645 Ry
     ewald contribution        =   -1218.29745862 Ry
     DFT-D3 Dispersion         =      -0.64531309 Ry
     one-center paw contrib.   =  -14417.98442192 Ry

     convergence has been achieved in   9 iterations

     Forces acting on atoms (cartesian axes, Ry/au):

     atom    1 type  1   force =     0.00036614   -0.00006926   -0.00001132
     atom    2 type  1   force =     0.00044075    0.00029399    0.00061153
     atom    3 type  1   force =    -0.00002394    0.00010152    0.00007409
     atom    4 type  1   force =     0.00021540    0.00002171   -0.00034299
     atom    5 type  1   force =     0.00003287    0.00028960    0.00004994
     atom    6 type  1   force =    -0.00026375   -0.00044290    0.00014236
     atom    7 type  1   force =    -0.00014695   -0.00008192   -0.00018360
     atom    8 type  1   force =    -0.00034567   -0.00015294   -0.00026753
     atom    9 type  2   force =    -0.00051639   -0.00035318    0.00032131
     atom   10 type  2   force =    -0.00023756    0.00018630    0.00047639
     atom   11 type  2   force =    -0.00031564   -0.00005009   -0.00000684
     atom   12 type  2   force =     0.00053418    0.00037981   -0.00002647
     atom   13 type  2   force =    -0.00023816   -0.00020408   -0.00002910
     atom   14 type  2   force =     0.00032194    0.00012670    0.00013185
     atom   15 type  2   force =    -0.00064308    0.00010139    0.00034120
     atom   16 type  2   force =     0.00033975    0.00027376   -0.00006703
     atom   17 type  2   force =    -0.00029973   -0.00029851    0.00038848
     atom   18 type  2   force =    -0.00049391   -0.00025009   -0.00010022
     atom   19 type  2   force =     0.00029525    0.00013338   -0.00011322
     atom   20 type  2   force =     0.00033329    0.00045748    0.00001731
     atom   21 type  2   force =    -0.00010507   -0.00032153    0.00001867
     atom   22 type  2   force =    -0.00039182   -0.00025249   -0.00018849
     atom   23 type  2   force =     0.00085499    0.00004809    0.00019551
     atom   24 type  2   force =    -0.00002766    0.00043773    0.00001942
     atom   25 type  2   force =    -0.00006253   -0.00033872   -0.00011924
     atom   26 type  2   force =     0.00029173    0.00016775    0.00023375
     atom   27 type  2   force =     0.00024600   -0.00018824   -0.00000968
     atom   28 type  2   force =    -0.00036561    0.00027849    0.00033317
     atom   29 type  2   force =    -0.00006640   -0.00007109    0.00011505
     atom   30 type  2   force =     0.00002718   -0.00010400   -0.00016648
     atom   31 type  2   force =    -0.00007624    0.00036716   -0.00126812
     atom   32 type  2   force =     0.00010544   -0.00047468    0.00007343
     atom   33 type  3   force =     0.00061023    0.00021260    0.00144492
     atom   34 type  3   force =    -0.00287603    0.00059903   -0.00120668
     atom   35 type  3   force =     0.00077880   -0.00007701    0.00048653
     atom   36 type  3   force =     0.00219388    0.00041074    0.00029783
     atom   37 type  3   force =    -0.00059144    0.00044163   -0.00043665
     atom   38 type  3   force =    -0.00064741    0.00016010   -0.00145019
     atom   39 type  3   force =    -0.00109575   -0.00065134    0.00068827
     atom   40 type  3   force =     0.00108115    0.00093575    0.00015408
     atom   41 type  4   force =     0.00016108   -0.00060676   -0.00122664
     atom   42 type  4   force =     0.00034951   -0.00040731   -0.00022492
     atom   43 type  4   force =     0.00029946    0.00027589    0.00015754
     atom   44 type  4   force =    -0.00033213   -0.00016216   -0.00084693
     atom   45 type  4   force =    -0.00019517   -0.00006287   -0.00020839
     atom   46 type  4   force =     0.00129796   -0.00000522   -0.00009310
     atom   47 type  4   force =     0.00017349    0.00081699   -0.00097847
     atom   48 type  4   force =    -0.00048243   -0.00110592    0.00047228
     atom   49 type  4   force =    -0.00084990    0.00047257   -0.00139437
     atom   50 type  4   force =     0.00009048    0.00012364    0.00021987
     atom   51 type  4   force =    -0.00022515   -0.00021831   -0.00030366
     atom   52 type  4   force =    -0.00064717    0.00025427   -0.00002210
     atom   53 type  4   force =    -0.00100209   -0.00003779    0.00062469
     atom   54 type  4   force =     0.00038615   -0.00046116    0.00046785
     atom   55 type  4   force =     0.00085180    0.00022504   -0.00020496
     atom   56 type  4   force =    -0.00097345    0.00022394    0.00036779
     atom   57 type  5   force =    -0.00003614    0.00020081    0.00011963
     atom   58 type  5   force =     0.00147930   -0.00010737    0.00087431
     atom   59 type  5   force =    -0.00071504   -0.00022772    0.00023947
     atom   60 type  5   force =    -0.00070117    0.00018870   -0.00071338
     atom   61 type  5   force =     0.00056810    0.00075397    0.00012054
     atom   62 type  5   force =     0.00003768    0.00053717    0.00048305
     atom   63 type  5   force =    -0.00008668    0.00045312    0.00066718
     atom   64 type  5   force =     0.00007976   -0.00007020   -0.00063811
     atom   65 type  5   force =     0.00028922   -0.00004663    0.00030335
     atom   66 type  5   force =     0.00060059   -0.00164293   -0.00100814
     atom   67 type  5   force =    -0.00014882    0.00072830    0.00000313
     atom   68 type  5   force =    -0.00109914    0.00105318    0.00005151
     atom   69 type  5   force =    -0.00087132   -0.00064540   -0.00069754
     atom   70 type  5   force =    -0.00035022    0.00100595    0.00065753
     atom   71 type  5   force =    -0.00014954    0.00028143    0.00024197
     atom   72 type  5   force =    -0.00009239   -0.00020643    0.00023742
     atom   73 type  5   force =     0.00035569    0.00017538    0.00085396
     atom   74 type  5   force =     0.00026809    0.00106562    0.00085498
     atom   75 type  5   force =     0.00057985   -0.00037514   -0.00068222
     atom   76 type  5   force =     0.00003155   -0.00076353    0.00096552
     atom   77 type  5   force =     0.00012897   -0.00072518   -0.00071647
     atom   78 type  5   force =    -0.00002737   -0.00145084    0.00086716
     atom   79 type  5   force =    -0.00050419   -0.00068722    0.00058400
     atom   80 type  5   force =     0.00047470    0.00020797   -0.00044669
     atom   81 type  5   force =    -0.00009621   -0.00019503   -0.00009457
     atom   82 type  5   force =     0.00020326    0.00125452    0.00126876
     atom   83 type  5   force =     0.00040259    0.00045417   -0.00027879
     atom   84 type  5   force =     0.00003481   -0.00072962   -0.00000393
     atom   85 type  5   force =     0.00152444    0.00125246    0.00079785
     atom   86 type  5   force =    -0.00002521   -0.00081880   -0.00039130
     atom   87 type  5   force =     0.00052436    0.00034799   -0.00047892
     atom   88 type  5   force =     0.00025897    0.00038521   -0.00048571
     atom   89 type  5   force =    -0.00077213    0.00031795   -0.00074688
     atom   90 type  5   force =    -0.00013834   -0.00114362   -0.00106034
     atom   91 type  5   force =    -0.00064892   -0.00035456    0.00077543
     atom   92 type  5   force =     0.00013218    0.00019285   -0.00023446
     atom   93 type  5   force =     0.00029998   -0.00156746    0.00040106
     atom   94 type  5   force =    -0.00062924    0.00037771   -0.00001204
     atom   95 type  5   force =     0.00067799   -0.00073051   -0.00030016
     atom   96 type  5   force =    -0.00000072   -0.00011377    0.00019415

     Total force =     0.009981     Total SCF correction =     0.000151


     Computing stress (Cartesian axis) and pressure

          total   stress  (Ry/bohr**3)                   (kbar)     P=   -0.00
   0.00000035   0.00000052  -0.00000663          0.05      0.08     -0.98
   0.00000052   0.00000076   0.00000069          0.08      0.11      0.10
  -0.00000663   0.00000069  -0.00000121         -0.98      0.10     -0.18


     number of scf cycles    =  19
     number of bfgs steps    =  18

     enthalpy old            =  -16707.4704364852 Ry
     enthalpy new            =  -16707.4705930088 Ry

     CASE: enthalpy_new < enthalpy_old

     new trust radius        =       0.0502490650 bohr
     new conv_thr            =       0.0000000157 Ry

     new unit-cell volume =  13984.17925 a.u.^3 (  2072.24154 Ang^3 )
     density =      4.06258 g/cm^3

CELL_PARAMETERS (alat= 23.71984200)
   1.010439645   0.000000000   0.000000000
   0.000000000   1.025177618   0.000000000
   0.000000000   0.000000000   1.011561084

ATOMIC_POSITIONS (crystal)
Pb      -0.014150850  -0.024475190   0.009415070
Pb       0.483707265  -0.019081029   0.001955324
Pb      -0.015514339   0.481310098   0.009826657
Pb       0.023302732  -0.017620079   0.513371752
Pb       0.486441479   0.481998824  -0.003851511
Pb       0.022018062   0.479156973   0.505802533
Pb       0.525803136  -0.016877335   0.503086226
Pb       0.521801151   0.486166787   0.500399023
I        0.236478001  -0.008039770  -0.043646154
I        0.736587786  -0.004929282   0.042239621
I        0.235543753   0.488632350   0.057269736
I        0.271941304  -0.033447431   0.527525735
I        0.736413456   0.491190264  -0.053463355
I        0.271184886   0.473740716   0.460558401
I        0.772498033  -0.019475056   0.478812393
I        0.771505096   0.461913179   0.540337022
I       -0.028212411   0.233490487   0.006427380
I        0.471958822   0.233632834   0.008282068
I       -0.032114437   0.732660977   0.004123906
I        0.040813632   0.229587309   0.504258871
I        0.468578385   0.733763833  -0.000388010
I        0.028526295   0.728667546   0.513155268
I        0.530071340   0.231075008   0.503196664
I        0.541478195   0.731311195   0.501363395
I        0.035475755  -0.032044179   0.258597201
I        0.469436069  -0.018471337   0.253896096
I       -0.051862546   0.483959216   0.258356343
I       -0.040350708  -0.018482164   0.758607289
I        0.551446782   0.482840345   0.246632565
I        0.049967619   0.477879270   0.758419453
I        0.532412120  -0.025164836   0.756274050
I        0.456550969   0.470991518   0.747682224
C        0.235884936   0.251700796   0.250519995
C        0.763583955   0.254487088   0.276749532
C        0.246009658   0.732834412   0.296531339
C        0.257938382   0.251234252   0.733360074
C        0.750193307   0.790983142   0.252209374
C        0.254766985   0.770625394   0.748120200
C        0.733561261   0.253109608   0.756252348
C        0.759146746   0.751691786   0.735252089
N        0.204026946   0.196328062   0.169686321
N        0.693163061   0.236726414   0.202953565
N        0.164734619   0.678993253   0.262925553
N        0.187280420   0.233548478   0.806876306
N        0.665570542   0.741588737   0.219815078
N        0.178654874   0.729323173   0.804546395
N        0.704019868   0.202047779   0.840814248
N        0.688359525   0.744380194   0.810440986
N        0.314746529   0.227078933   0.312784432
N        0.846942580   0.196615417   0.294636491
N        0.342573861   0.722392389   0.260652631
N        0.338801531   0.190782243   0.713121264
N        0.838532233   0.746849297   0.281990407
N        0.327333589   0.717493802   0.697825532
N        0.811934301   0.226088398   0.694552956
N        0.836561569   0.685444119   0.720961852
H        0.194130428   0.324020072   0.267384968
H        0.751390791   0.322554628   0.326771878
H        0.233005395   0.790189463   0.358820181
H        0.249107025   0.321582275   0.686065484
H        0.746645468   0.875603851   0.254570086
H        0.257557774   0.855160363   0.742009603
H        0.689992893   0.323376911   0.735369006
H        0.753461973   0.817576427   0.681215358
H        0.239047011   0.128355245   0.147598907
H        0.698222460   0.174671899   0.152677459
H        0.171947488   0.622015753   0.206636005
H        0.190861067   0.169424613   0.854756960
H        0.658372085   0.662175395   0.219033324
H        0.165708429   0.650781606   0.808231689
H        0.740292486   0.135708642   0.866076746
H        0.688931979   0.684445359   0.863534221
H        0.141546469   0.220703693   0.124647098
H        0.631245299   0.286731933   0.194478108
H        0.094392503   0.687377058   0.300557181
H        0.126703559   0.285031150   0.816181908
H        0.601905817   0.783644704   0.195967600
H        0.125787384   0.775755860   0.842443934
H        0.641328422   0.227635556   0.884540542
H        0.629423311   0.798373979   0.814628915
H        0.359092124   0.161332213   0.302416012
H        0.864048986   0.131354760   0.252172286
H        0.361341596   0.672294683   0.201192385
H        0.353492112   0.124041794   0.753908275
H        0.851283735   0.668106968   0.279217955
H        0.335492329   0.638508644   0.704762053
H        0.856862818   0.161078791   0.707771583
H        0.846079193   0.621423366   0.767472137
H        0.333441915   0.274974731   0.374145509
H        0.897750926   0.215381673   0.354556888
H        0.399876905   0.771501950   0.287027044
H        0.391174023   0.210269262   0.654791934
H        0.899641300   0.793780854   0.304072927
H        0.382807245   0.754602260   0.653220174
H        0.828406442   0.271727065   0.630798290
H        0.889205639   0.696838254   0.660848388



     Writing output data file FAPbI83_vcrelax9.save/
     NEW-OLD atomic charge density approx. for the potential
     extrapolated charge  432.28206, renormalised to  432.00000

     total cpu time spent up to now is   589371.7 secs

     Self-consistent Calculation

     iteration #  1     ecut=   120.00 Ry     beta= 0.70
     Davidson diagonalization with overlap
     ethr =  1.00E-06,  avg # of iterations =  5.0

     total cpu time spent up to now is   593797.3 secs

     total energy              =  -16707.46991087 Ry
     Harris-Foulkes estimate   =  -16707.00233396 Ry
     estimated scf accuracy    <       0.00181439 Ry

     iteration #  2     ecut=   120.00 Ry     beta= 0.70
     Davidson diagonalization with overlap
     ethr =  4.20E-07,  avg # of iterations =  3.0

     total cpu time spent up to now is   596465.3 secs

     total energy              =  -16707.47054534 Ry
     Harris-Foulkes estimate   =  -16707.47102166 Ry
     estimated scf accuracy    <       0.00100794 Ry

     iteration #  3     ecut=   120.00 Ry     beta= 0.70
     Davidson diagonalization with overlap
     ethr =  2.33E-07,  avg # of iterations =  2.0

     total cpu time spent up to now is   598796.9 secs

     total energy              =  -16707.47076537 Ry
     Harris-Foulkes estimate   =  -16707.47074368 Ry
     estimated scf accuracy    <       0.00007849 Ry

     iteration #  4     ecut=   120.00 Ry     beta= 0.70
     Davidson diagonalization with overlap
     ethr =  1.82E-08,  avg # of iterations =  3.0

     total cpu time spent up to now is   601123.1 secs

     total energy              =  -16707.47078134 Ry
     Harris-Foulkes estimate   =  -16707.47077794 Ry
     estimated scf accuracy    <       0.00003263 Ry

     iteration #  5     ecut=   120.00 Ry     beta= 0.70
     Davidson diagonalization with overlap
