
     Program PWSCF v.6.4 starts on 26Jan2020 at 14:17:24 

     This program is part of the open-source Quantum ESPRESSO suite
     for quantum simulation of materials; please cite
         "P. Giannozzi et al., J. Phys.:Condens. Matter 21 395502 (2009);
         "P. Giannozzi et al., J. Phys.:Condens. Matter 29 465901 (2017);
          URL http://www.quantum-espresso.org", 
     in publications or presentations arising from this work. More details at
     http://www.quantum-espresso.org/quote

     Parallel version (MPI), running on    48 processors

     MPI processes distributed on     1 nodes
     K-points division:     npool     =       4
     R & G space division:  proc/nbgrp/npool/nimage =      12
     Waiting for input...
     Reading input from standard input
     Message from routine read_cards :
     DEPRECATED: no units specified in CELL_PARAMETERS card

     Current dimensions of program PWSCF are:
     Max number of different atomic species (ntypx) = 10
     Max number of k-points (npk) =  40000
     Max angular momentum in pseudopotentials (lmaxx) =  3
               file Pb.pbe-dn-kjpaw_psl.1.0.0.UPF: wavefunction(s)  6S 6P 5D renormalized
               file I.pbe-n-kjpaw_psl.1.0.0.UPF: wavefunction(s)  5S renormalized
               file C.pbe-n-kjpaw_psl.1.0.0.UPF: wavefunction(s)  2S 2P renormalized
               file N.pbe-n-kjpaw_psl.1.0.0.UPF: wavefunction(s)  2S renormalized
               file H.pbe-kjpaw_psl.1.0.0.UPF: wavefunction(s)  1S renormalized

     --------------------------------------------
     Parameters for DFT-D3 Dispersion Correction:
     --------------------------------------------
       Reference C6 values for interpolation: 

         atom   Coordination number   C6
         H          0.912             6.05
         H          0.000            15.18
         C          0.000            98.23
         C          0.987            86.49
         C          1.998            58.72
         C          2.999            51.56
         C          3.984            36.41
         N          0.000            50.54
         N          0.994            44.25
         N          2.014            39.35
         N          2.990            31.16
         I          0.000           703.93
         I          0.997           717.00
         Pb         0.000          1477.63
         Pb         0.938          1266.00
         Pb         1.936          1088.91
         Pb         2.908          1048.37
         Pb         3.910           910.57

       Values used:

         atom   Coordination number  R0_AB[au]  C6      C8
         Pb         4.901            4.041    910.57 144158.25
         Pb         4.902            4.041    910.57 144158.25
         Pb         4.911            4.041    910.57 144158.24
         Pb         4.912            4.041    910.57 144158.24
         Pb         4.926            4.041    910.57 144158.22
         Pb         4.917            4.041    910.57 144158.23
         Pb         4.921            4.041    910.57 144158.23
         Pb         4.899            4.041    910.57 144158.25
         I          1.977            3.532    717.00  65856.00
         I          1.949            3.532    717.00  65855.99
         I          2.034            3.532    717.00  65856.00
         I          1.961            3.532    717.00  65856.00
         I          1.941            3.532    717.00  65855.99
         I          2.036            3.532    717.00  65856.00
         I          1.987            3.532    717.00  65856.00
         I          1.943            3.532    717.00  65855.99
         I          2.034            3.532    717.00  65856.00
         I          1.978            3.532    717.00  65856.00
         I          1.952            3.532    717.00  65856.00
         I          2.039            3.532    717.00  65856.00
         I          1.988            3.532    717.00  65856.00
         I          1.959            3.532    717.00  65856.00
         I          2.049            3.532    717.00  65856.00
         I          1.996            3.532    717.00  65856.00
         I          1.968            3.532    717.00  65856.00
         I          2.023            3.532    717.00  65856.00
         I          1.979            3.532    717.00  65856.00
         I          1.963            3.532    717.00  65856.00
         I          2.041            3.532    717.00  65856.00
         I          1.997            3.532    717.00  65856.00
         I          1.945            3.532    717.00  65855.99
         I          2.033            3.532    717.00  65856.00
         C          4.021            2.750     36.62   1059.01
         C          4.021            2.750     36.62   1059.01
         C          4.020            2.750     36.62   1059.01
         C          4.020            2.750     36.62   1059.02
         C          4.020            2.750     36.62   1059.02
         C          4.020            2.750     36.62   1059.04
         C          4.020            2.750     36.62   1059.01
         C          4.021            2.750     36.62   1058.98
         N          4.046            2.478     31.16    687.49
         N          4.045            2.478     31.16    687.49
         N          4.046            2.478     31.16    687.49
         N          4.047            2.478     31.16    687.49
         N          4.044            2.478     31.16    687.49
         N          4.044            2.478     31.16    687.49
         N          4.046            2.478     31.16    687.49
         N          4.047            2.478     31.16    687.49
         H          1.022            2.062      6.16     74.49
         H          1.038            2.062      6.15     74.35
         H          1.033            2.062      6.15     74.39
         H          1.005            2.062      6.18     74.67
         H          1.008            2.062      6.17     74.63
         H          1.006            2.062      6.18     74.65
         H          1.023            2.062      6.16     74.49
         H          1.036            2.062      6.15     74.37
         H          1.034            2.062      6.15     74.38
         H          1.005            2.062      6.18     74.67
         H          1.007            2.062      6.18     74.65
         H          1.007            2.062      6.18     74.65
         H          1.023            2.062      6.16     74.48
         H          1.024            2.062      6.16     74.47
         H          1.056            2.062      6.14     74.20
         H          1.005            2.062      6.18     74.67
         H          1.006            2.062      6.18     74.65
         H          1.008            2.062      6.17     74.64
         H          1.022            2.062      6.16     74.49
         H          1.033            2.062      6.15     74.39
         H          1.035            2.062      6.15     74.37
         H          1.005            2.062      6.18     74.67
         H          1.007            2.062      6.17     74.65
         H          1.007            2.062      6.17     74.64
         H          1.023            2.062      6.16     74.48
         H          1.033            2.062      6.15     74.39
         H          1.032            2.062      6.15     74.40
         H          1.005            2.062      6.18     74.66
         H          1.006            2.062      6.18     74.65
         H          1.008            2.062      6.17     74.64
         H          1.022            2.062      6.16     74.49
         H          1.040            2.062      6.15     74.33
         H          1.027            2.062      6.16     74.44
         H          1.005            2.062      6.18     74.67
         H          1.008            2.062      6.17     74.64
         H          1.006            2.062      6.18     74.65
         H          1.023            2.062      6.16     74.48
         H          1.043            2.062      6.15     74.31
         H          1.030            2.062      6.16     74.42
         H          1.005            2.062      6.18     74.66
         H          1.008            2.062      6.17     74.64
         H          1.006            2.062      6.18     74.65
         H          1.023            2.062      6.16     74.49
         H          1.038            2.062      6.15     74.35
         H          1.032            2.062      6.15     74.40
         H          1.005            2.062      6.18     74.66
         H          1.007            2.062      6.18     74.65
         H          1.007            2.062      6.17     74.64

         Molecular C6 ( Ry / a.u.^6 ) =   1196664.07


     Subspace diagonalization in iterative solution of the eigenvalue problem:
     a serial algorithm will be used


     Parallelization info
     --------------------
     sticks:   dense  smooth     PW     G-vecs:    dense   smooth      PW
     Min        1849    1849    477               204051   204051   26714
     Max        1851    1851    479               204052   204052   26716
     Sum       22203   22203   5737              2448619  2448619  320583



     bravais-lattice index     =            0
     lattice parameter (alat)  =      24.1526  a.u.
     unit-cell volume          =   13788.9017 (a.u.)^3
     number of atoms/cell      =           96
     number of atomic types    =            5
     number of electrons       =       400.00
     number of Kohn-Sham states=          200
     kinetic-energy cutoff     =     120.0000  Ry
     charge density cutoff     =     480.0000  Ry
     convergence threshold     =      1.0E-07
     mixing beta               =       0.7000
     number of iterations used =            8  plain     mixing
     Exchange-correlation      = SLA PW PBX PBC ( 1  4  3  4 0 0)
     nstep                     =          150


     celldm(1)=  24.152590  celldm(2)=   0.000000  celldm(3)=   0.000000
     celldm(4)=   0.000000  celldm(5)=   0.000000  celldm(6)=   0.000000

     crystal axes: (cart. coord. in units of alat)
               a(1) = (   0.996428   0.000000   0.000000 )  
               a(2) = (   0.000000   1.000080   0.000000 )  
               a(3) = (   0.000000   0.000000   0.982105 )  

     reciprocal axes: (cart. coord. in units 2 pi/alat)
               b(1) = (  1.003585  0.000000  0.000000 )  
               b(2) = (  0.000000  0.999920  0.000000 )  
               b(3) = (  0.000000  0.000000  1.018221 )  


     PseudoPot. # 1 for Pb read from file:
     ../Pseudopotential/Pb.pbe-dn-kjpaw_psl.1.0.0.UPF
     MD5 check sum: 684fc8fbce61a260853528575e4d9ab7
     Pseudo is Projector augmented-wave + core cor, Zval = 14.0
     Generated using "atomic" code by A. Dal Corso v.6.3
     Shape of augmentation charge: PSQ
     Using radial grid of 1281 points,  6 beta functions with: 
                l(1) =   0
                l(2) =   0
                l(3) =   1
                l(4) =   1
                l(5) =   2
                l(6) =   2
     Q(r) pseudized with 0 coefficients 


     PseudoPot. # 2 for I  read from file:
     ../Pseudopotential/I.pbe-n-kjpaw_psl.1.0.0.UPF
     MD5 check sum: cd3d296c3308a581e1559a0c8a554cb5
     Pseudo is Projector augmented-wave + core cor, Zval =  7.0
     Generated using "atomic" code by A. Dal Corso v.6.3
     Shape of augmentation charge: PSQ
     Using radial grid of 1247 points,  6 beta functions with: 
                l(1) =   0
                l(2) =   0
                l(3) =   1
                l(4) =   1
                l(5) =   2
                l(6) =   2
     Q(r) pseudized with 0 coefficients 


     PseudoPot. # 3 for C  read from file:
     ../Pseudopotential/C.pbe-n-kjpaw_psl.1.0.0.UPF
     MD5 check sum: 5f16ad9a65e90284d1d834d4ab3b0f7d
     Pseudo is Projector augmented-wave + core cor, Zval =  4.0
     Generated using "atomic" code by A. Dal Corso v.6.3
     Shape of augmentation charge: PSQ
     Using radial grid of 1073 points,  4 beta functions with: 
                l(1) =   0
                l(2) =   0
                l(3) =   1
                l(4) =   1
     Q(r) pseudized with 0 coefficients 


     PseudoPot. # 4 for N  read from file:
     ../Pseudopotential/N.pbe-n-kjpaw_psl.1.0.0.UPF
     MD5 check sum: 14c48229446f9f2d411169a3abcbc3fa
     Pseudo is Projector augmented-wave + core cor, Zval =  5.0
     Generated using "atomic" code by A. Dal Corso v.6.3
     Shape of augmentation charge: PSQ
     Using radial grid of 1085 points,  4 beta functions with: 
                l(1) =   0
                l(2) =   0
                l(3) =   1
                l(4) =   1
     Q(r) pseudized with 0 coefficients 


     PseudoPot. # 5 for H  read from file:
     ../Pseudopotential/H.pbe-kjpaw_psl.1.0.0.UPF
     MD5 check sum: d81a744832360e4a8af0b0b5b123bc2a
     Pseudo is Projector augmented-wave, Zval =  1.0
     Generated using "atomic" code by A. Dal Corso v.6.3MaX
     Shape of augmentation charge: PSQ
     Using radial grid of  929 points,  2 beta functions with: 
                l(1) =   0
                l(2) =   0
     Q(r) pseudized with 0 coefficients 


     atomic species   valence    mass     pseudopotential
        Pb            14.00   207.97600     Pb( 1.00)
        I              7.00   126.90400     I ( 1.00)
        C              4.00    12.00000     C ( 1.00)
        N              5.00    14.00300     N ( 1.00)
        H              1.00     1.00700     H ( 1.00)

     No symmetry found



   Cartesian axes

     site n.     atom                  positions (alat units)
         1           Pb  tau(   1) = (  -0.0015814  -0.0024832   0.0001414  )
         2           Pb  tau(   2) = (  -0.0029425  -0.0021524   0.4912399  )
         3           Pb  tau(   3) = (  -0.0012251   0.4978196  -0.0013642  )
         4           Pb  tau(   4) = (  -0.0013775   0.4982685   0.4900791  )
         5           Pb  tau(   5) = (   0.4967941  -0.0012981   0.0000535  )
         6           Pb  tau(   6) = (   0.4975951  -0.0031765   0.4901446  )
         7           Pb  tau(   7) = (   0.4968026   0.4988517  -0.0010350  )
         8           Pb  tau(   8) = (   0.4979101   0.4968578   0.4902347  )
         9           I   tau(   9) = (   0.2528857   0.0309247  -0.0057887  )
        10           I   tau(  10) = (   0.0309866   0.2555101  -0.0107125  )
        11           I   tau(  11) = (   0.0001067   0.0055078   0.2436333  )
        12           I   tau(  12) = (   0.2529653   0.0242467   0.4826555  )
        13           I   tau(  13) = (   0.0342001   0.2542523   0.4849442  )
        14           I   tau(  14) = (  -0.0037031   0.0076488   0.7351345  )
        15           I   tau(  15) = (   0.2523494   0.5317019  -0.0080276  )
        16           I   tau(  16) = (   0.0281432   0.7555756  -0.0079216  )
        17           I   tau(  17) = (   0.0056964   0.4994049   0.2427379  )
        18           I   tau(  18) = (   0.2526693   0.5347723   0.4819340  )
        19           I   tau(  19) = (   0.0241536   0.7549405   0.4821489  )
        20           I   tau(  20) = (   0.0006241   0.5053058   0.7337288  )
        21           I   tau(  21) = (   0.7504584   0.0271839  -0.0073578  )
        22           I   tau(  22) = (   0.5288895   0.2546311  -0.0073984  )
        23           I   tau(  23) = (   0.5003114   0.0026489   0.2433699  )
        24           I   tau(  24) = (   0.7509147   0.0339190   0.4835642  )
        25           I   tau(  25) = (   0.5247878   0.2538688   0.4809635  )
        26           I   tau(  26) = (   0.4973268   0.0058717   0.7343947  )
        27           I   tau(  27) = (   0.7506464   0.5284301  -0.0062903  )
        28           I   tau(  28) = (   0.5285631   0.7545763  -0.0076603  )
        29           I   tau(  29) = (   0.5001108   0.5016545   0.2430126  )
        30           I   tau(  30) = (   0.7512792   0.5251879   0.4805809  )
        31           I   tau(  31) = (   0.5335312   0.7543171   0.4826792  )
        32           I   tau(  32) = (   0.4970897   0.5038867   0.7338877  )
        33           C   tau(  33) = (   0.2849780   0.2875359   0.2473572  )
        34           C   tau(  34) = (   0.2835914   0.2876878   0.7364203  )
        35           C   tau(  35) = (   0.2869127   0.7849418   0.2450259  )
        36           C   tau(  36) = (   0.2866041   0.7841595   0.7394510  )
        37           C   tau(  37) = (   0.7847195   0.2868008   0.2449359  )
        38           C   tau(  38) = (   0.7830114   0.2875125   0.7391666  )
        39           C   tau(  39) = (   0.7849007   0.7844658   0.2461454  )
        40           C   tau(  40) = (   0.7795977   0.7871363   0.7363946  )
        41           N   tau(  41) = (   0.2029593   0.2027892   0.2524904  )
        42           N   tau(  42) = (   0.2030012   0.2015632   0.7409606  )
        43           N   tau(  43) = (   0.2041831   0.7013021   0.2511668  )
        44           N   tau(  44) = (   0.2013225   0.7029148   0.7408975  )
        45           N   tau(  45) = (   0.7022498   0.2022639   0.2482089  )
        46           N   tau(  46) = (   0.7012600   0.2023775   0.7417863  )
        47           N   tau(  47) = (   0.6990453   0.7036302   0.2495331  )
        48           N   tau(  48) = (   0.6979575   0.7025558   0.7423277  )
        49           H   tau(  49) = (   0.1788493   0.1782564   0.1793443  )
        50           H   tau(  50) = (   0.1371157   0.2271011   0.2935445  )
        51           H   tau(  51) = (   0.2294046   0.1372881   0.2922869  )
        52           H   tau(  52) = (   0.3067402   0.2999842   0.1655574  )
        53           H   tau(  53) = (   0.3535099   0.2622342   0.2920676  )
        54           H   tau(  54) = (   0.2527613   0.3595065   0.2808706  )
        55           H   tau(  55) = (   0.1818721   0.1757029   0.6672708  )
        56           H   tau(  56) = (   0.1354638   0.2255611   0.7792718  )
        57           H   tau(  57) = (   0.2296339   0.1377018   0.7835394  )
        58           H   tau(  58) = (   0.2996167   0.3068653   0.6545853  )
        59           H   tau(  59) = (   0.3552167   0.2610939   0.7749589  )
        60           H   tau(  60) = (   0.2531455   0.3565654   0.7770277  )
        61           H   tau(  61) = (   0.1897702   0.6668028   0.1793689  )
        62           H   tau(  62) = (   0.1341584   0.7304222   0.2796126  )
        63           H   tau(  63) = (   0.2249189   0.6418514   0.3029396  )
        64           H   tau(  64) = (   0.2932260   0.8119629   0.1640645  )
        65           H   tau(  65) = (   0.3615618   0.7518707   0.2706771  )
        66           H   tau(  66) = (   0.2646151   0.8497767   0.2964449  )
        67           H   tau(  67) = (   0.1781147   0.6812923   0.6666487  )
        68           H   tau(  68) = (   0.1354418   0.7282963   0.7807918  )
        69           H   tau(  69) = (   0.2239892   0.6358234   0.7803919  )
        70           H   tau(  70) = (   0.3002896   0.8088377   0.6586496  )
        71           H   tau(  71) = (   0.3576755   0.7503059   0.7729137  )
        72           H   tau(  72) = (   0.2619873   0.8509362   0.7867726  )
        73           H   tau(  73) = (   0.6771225   0.1810517   0.1742407  )
        74           H   tau(  74) = (   0.6370091   0.2253779   0.2907301  )
        75           H   tau(  75) = (   0.7288963   0.1353301   0.2853546  )
        76           H   tau(  76) = (   0.7983575   0.3091272   0.1634558  )
        77           H   tau(  77) = (   0.8569091   0.2565751   0.2798064  )
        78           H   tau(  78) = (   0.7568465   0.3542843   0.2896979  )
        79           H   tau(  79) = (   0.6730411   0.1846020   0.6681268  )
        80           H   tau(  80) = (   0.6377096   0.2225002   0.7883731  )
        81           H   tau(  81) = (   0.7301895   0.1338283   0.7739935  )
        82           H   tau(  82) = (   0.8064100   0.3006678   0.6578881  )
        83           H   tau(  83) = (   0.8504895   0.2628811   0.7859141  )
        84           H   tau(  84) = (   0.7493216   0.3590369   0.7720236  )
        85           H   tau(  85) = (   0.6717712   0.6852170   0.1756155  )
        86           H   tau(  86) = (   0.6356267   0.7282424   0.2940297  )
        87           H   tau(  87) = (   0.7232425   0.6348045   0.2847207  )
        88           H   tau(  88) = (   0.8059133   0.7987453   0.1645020  )
        89           H   tau(  89) = (   0.8526459   0.7551939   0.2895674  )
        90           H   tau(  90) = (   0.7565756   0.8566127   0.2823516  )
        91           H   tau(  91) = (   0.6736891   0.6781187   0.6692177  )
        92           H   tau(  92) = (   0.6321831   0.7265363   0.7833017  )
        93           H   tau(  93) = (   0.7243601   0.6374010   0.7825903  )
        94           H   tau(  94) = (   0.7931065   0.8073935   0.6544876  )
        95           H   tau(  95) = (   0.8518611   0.7585389   0.7719350  )
        96           H   tau(  96) = (   0.7518735   0.8555501   0.7794542  )

     number of k points=    32
                       cart. coord. in units 2pi/alat
        k(    1) = (   0.1254481   0.1249900   0.1272776), wk =   0.0625000
        k(    2) = (   0.1254481   0.1249900   0.3818329), wk =   0.0625000
        k(    3) = (   0.1254481   0.3749699   0.1272776), wk =   0.0625000
        k(    4) = (   0.1254481   0.3749699   0.3818329), wk =   0.0625000
        k(    5) = (   0.3763444   0.1249900   0.1272776), wk =   0.0625000
        k(    6) = (   0.3763444   0.1249900   0.3818329), wk =   0.0625000
        k(    7) = (   0.3763444   0.3749699   0.1272776), wk =   0.0625000
        k(    8) = (   0.3763444   0.3749699   0.3818329), wk =   0.0625000
        k(    9) = (  -0.1254481  -0.1249900   0.1272776), wk =   0.0625000
        k(   10) = (  -0.1254481   0.1249900  -0.1272776), wk =   0.0625000
        k(   11) = (   0.1254481  -0.1249900  -0.1272776), wk =   0.0625000
        k(   12) = (  -0.1254481  -0.1249900   0.3818329), wk =   0.0625000
        k(   13) = (  -0.1254481   0.1249900  -0.3818329), wk =   0.0625000
        k(   14) = (   0.1254481  -0.1249900  -0.3818329), wk =   0.0625000
        k(   15) = (  -0.1254481  -0.3749699   0.1272776), wk =   0.0625000
        k(   16) = (  -0.1254481   0.3749699  -0.1272776), wk =   0.0625000
        k(   17) = (   0.1254481  -0.3749699  -0.1272776), wk =   0.0625000
        k(   18) = (  -0.1254481  -0.3749699   0.3818329), wk =   0.0625000
        k(   19) = (  -0.1254481   0.3749699  -0.3818329), wk =   0.0625000
        k(   20) = (   0.1254481  -0.3749699  -0.3818329), wk =   0.0625000
        k(   21) = (  -0.3763444  -0.1249900   0.1272776), wk =   0.0625000
        k(   22) = (  -0.3763444   0.1249900  -0.1272776), wk =   0.0625000
        k(   23) = (   0.3763444  -0.1249900  -0.1272776), wk =   0.0625000
        k(   24) = (  -0.3763444  -0.1249900   0.3818329), wk =   0.0625000
        k(   25) = (  -0.3763444   0.1249900  -0.3818329), wk =   0.0625000
        k(   26) = (   0.3763444  -0.1249900  -0.3818329), wk =   0.0625000
        k(   27) = (  -0.3763444  -0.3749699   0.1272776), wk =   0.0625000
        k(   28) = (  -0.3763444   0.3749699  -0.1272776), wk =   0.0625000
        k(   29) = (   0.3763444  -0.3749699  -0.1272776), wk =   0.0625000
        k(   30) = (  -0.3763444  -0.3749699   0.3818329), wk =   0.0625000
        k(   31) = (  -0.3763444   0.3749699  -0.3818329), wk =   0.0625000
        k(   32) = (   0.3763444  -0.3749699  -0.3818329), wk =   0.0625000

     Dense  grid:  2448619 G-vectors     FFT dimensions: ( 180, 180, 180)

     Estimated max dynamical RAM per process >       2.14 GB

     Estimated total dynamical RAM >     102.58 GB

     Initial potential from superposition of free atoms

     starting charge  399.97850, renormalised to  400.00000
     Starting wfcs are  280 randomized atomic wfcs
     Checking if some PAW data can be deallocated... 

     total cpu time spent up to now is      481.2 secs

     Self-consistent Calculation

     iteration #  1     ecut=   120.00 Ry     beta= 0.70
     Davidson diagonalization with overlap
     ethr =  1.00E-02,  avg # of iterations =  2.0

     total cpu time spent up to now is     1318.0 secs

     total energy              =  -16489.31880895 Ry
     Harris-Foulkes estimate   =  -16492.61729716 Ry
     estimated scf accuracy    <       5.64093081 Ry

     iteration #  2     ecut=   120.00 Ry     beta= 0.70
     Davidson diagonalization with overlap
     ethr =  1.41E-03,  avg # of iterations =  3.0

     total cpu time spent up to now is     2459.9 secs

     total energy              =  -16490.54043117 Ry
     Harris-Foulkes estimate   =  -16491.67370488 Ry
     estimated scf accuracy    <       2.01002102 Ry

     iteration #  3     ecut=   120.00 Ry     beta= 0.70
     Davidson diagonalization with overlap
     ethr =  5.03E-04,  avg # of iterations =  3.0

     total cpu time spent up to now is     3378.8 secs

     total energy              =  -16491.01170397 Ry
     Harris-Foulkes estimate   =  -16491.05617668 Ry
     estimated scf accuracy    <       0.10160370 Ry

     iteration #  4     ecut=   120.00 Ry     beta= 0.70
     Davidson diagonalization with overlap
     ethr =  2.54E-05,  avg # of iterations =  3.0

     total cpu time spent up to now is     4545.6 secs

     total energy              =  -16491.03780959 Ry
     Harris-Foulkes estimate   =  -16491.04915634 Ry
     estimated scf accuracy    <       0.02111347 Ry

     iteration #  5     ecut=   120.00 Ry     beta= 0.70
     Davidson diagonalization with overlap
     ethr =  5.28E-06,  avg # of iterations =  2.0

     total cpu time spent up to now is     5551.6 secs

     total energy              =  -16491.04204665 Ry
     Harris-Foulkes estimate   =  -16491.04223656 Ry
     estimated scf accuracy    <       0.00049012 Ry

     iteration #  6     ecut=   120.00 Ry     beta= 0.70
     Davidson diagonalization with overlap
     ethr =  1.23E-07,  avg # of iterations =  4.0

     total cpu time spent up to now is     6889.5 secs

     total energy              =  -16491.04220112 Ry
     Harris-Foulkes estimate   =  -16491.04242422 Ry
     estimated scf accuracy    <       0.00047859 Ry

     iteration #  7     ecut=   120.00 Ry     beta= 0.70
     Davidson diagonalization with overlap
     ethr =  1.20E-07,  avg # of iterations =  2.5

     total cpu time spent up to now is     7792.2 secs

     total energy              =  -16491.04230604 Ry
     Harris-Foulkes estimate   =  -16491.04232671 Ry
     estimated scf accuracy    <       0.00005061 Ry

     iteration #  8     ecut=   120.00 Ry     beta= 0.70
     Davidson diagonalization with overlap
     ethr =  1.27E-08,  avg # of iterations =  3.0

     total cpu time spent up to now is     8839.7 secs

     total energy              =  -16491.04231914 Ry
     Harris-Foulkes estimate   =  -16491.04232220 Ry
     estimated scf accuracy    <       0.00000773 Ry

     iteration #  9     ecut=   120.00 Ry     beta= 0.70
     Davidson diagonalization with overlap
     ethr =  1.93E-09,  avg # of iterations =  3.0

     total cpu time spent up to now is     9853.3 secs

     total energy              =  -16491.04232079 Ry
     Harris-Foulkes estimate   =  -16491.04232113 Ry
     estimated scf accuracy    <       0.00000067 Ry

     iteration # 10     ecut=   120.00 Ry     beta= 0.70
     Davidson diagonalization with overlap
     ethr =  1.66E-10,  avg # of iterations =  3.4

     total cpu time spent up to now is    10885.9 secs

     total energy              =  -16491.04232097 Ry
     Harris-Foulkes estimate   =  -16491.04232106 Ry
     estimated scf accuracy    <       0.00000020 Ry

     iteration # 11     ecut=   120.00 Ry     beta= 0.70
     Davidson diagonalization with overlap
     ethr =  5.04E-11,  avg # of iterations =  3.2

     total cpu time spent up to now is    11810.8 secs

     End of self-consistent calculation

          k = 0.1254 0.1250 0.1273 (306055 PWs)   bands (ev):

   -17.8026 -17.8009 -17.7609 -17.7536 -17.7511 -17.7462 -17.7410 -17.7401
   -14.3436 -14.3310 -14.3306 -14.3294 -14.3263 -14.3189 -14.3146 -14.3142
   -14.3125 -14.3094 -14.3061 -14.3058 -14.3036 -14.2964 -14.2963 -14.2951
   -14.2945 -14.2933 -14.2926 -14.2915 -14.2833 -14.2821 -14.2808 -14.2785
   -14.2773 -14.2748 -14.2727 -14.2697 -14.2688 -14.2676 -14.2661 -14.2655
   -14.2630 -14.2617 -14.2600 -14.2593 -14.2573 -14.2568 -14.2505 -14.2494
   -10.8256 -10.8127 -10.7887 -10.7869 -10.7823 -10.7789 -10.7773 -10.7693
    -9.8353  -9.6577  -9.6394  -9.6325  -9.4670  -9.4593  -9.4564  -9.3897
    -9.3474  -9.3364  -9.3352  -9.3323  -9.3292  -9.3234  -9.2995  -9.2908
    -9.2841  -9.2735  -9.2700  -9.1220  -9.1135  -9.1050  -9.0933  -9.0862
    -7.3096  -7.3003  -7.2689  -7.2666  -7.2520  -7.2413  -7.2326  -7.2211
    -7.1095  -7.1003  -7.0951  -7.0857  -7.0780  -7.0685  -7.0629  -7.0598
    -6.0409  -5.6027  -5.5847  -5.4729  -5.2045  -5.1845  -5.1813  -5.1477
    -5.1445  -5.1410  -5.1332  -5.1254  -5.1152  -5.0434  -5.0269  -4.6202
    -3.0567  -3.0344  -3.0273  -3.0252  -3.0199  -3.0171  -3.0094  -3.0015
    -2.9913  -2.9796  -2.9687  -2.9599  -2.9574  -2.9508  -2.9368  -2.9345
    -1.1268  -1.0107  -1.0059  -0.9769  -0.9317  -0.9262  -0.9091  -0.8959
    -0.8484  -0.7992  -0.7945  -0.7702   0.0932   0.0971   0.1801   0.1945
     0.2228   0.2613   0.3238   0.4429   0.4517   0.5268   0.5376   0.5522
     0.5810   0.6080   0.6187   0.6202   0.6241   0.7596   0.7861   0.7990
     0.8093   0.8113   0.8327   0.8367   0.8506   0.8582   0.9014   0.9388
     0.9472   0.9576   0.9631   1.0172   1.0298   1.0635   1.0856   1.0941
     1.0960   1.1157   1.1165   1.1270   1.1388   1.1498   1.1665   1.1762
     1.1829   1.1983   1.2798   1.4265   1.4707   1.4875   1.5034   1.5123
     1.5258   1.5477   1.5841   1.6074   1.6122   1.8632   1.8845   1.9904

          k = 0.1254 0.1250 0.3818 (306030 PWs)   bands (ev):

   -17.8026 -17.8009 -17.7609 -17.7536 -17.7511 -17.7462 -17.7409 -17.7402
   -14.3399 -14.3345 -14.3301 -14.3295 -14.3232 -14.3177 -14.3155 -14.3144
   -14.3122 -14.3096 -14.3074 -14.3054 -14.3032 -14.2997 -14.2964 -14.2951
   -14.2946 -14.2934 -14.2925 -14.2915 -14.2832 -14.2821 -14.2808 -14.2785
   -14.2773 -14.2748 -14.2727 -14.2697 -14.2688 -14.2676 -14.2662 -14.2655
   -14.2630 -14.2617 -14.2600 -14.2593 -14.2574 -14.2568 -14.2505 -14.2495
   -10.8254 -10.8124 -10.7877 -10.7871 -10.7818 -10.7795 -10.7784 -10.7694
    -9.7972  -9.7269  -9.6022  -9.5959  -9.5364  -9.5315  -9.4409  -9.4152
    -9.3434  -9.3399  -9.3365  -9.3352  -9.3149  -9.3037  -9.2879  -9.2865
    -9.2508  -9.2011  -9.1949  -9.1638  -9.1343  -9.1281  -9.1080  -9.1062
    -7.3054  -7.2933  -7.2606  -7.2573  -7.2571  -7.2449  -7.2416  -7.2283
    -7.1068  -7.0970  -7.0938  -7.0903  -7.0741  -7.0703  -7.0675  -7.0612
    -5.8918  -5.6591  -5.4622  -5.4443  -5.2405  -5.2245  -5.1919  -5.1797
    -5.1553  -5.1480  -5.1399  -5.1360  -5.1319  -5.1152  -5.0254  -4.8105
    -3.0548  -3.0294  -3.0247  -3.0228  -3.0211  -3.0177  -3.0125  -3.0025
    -2.9902  -2.9822  -2.9671  -2.9606  -2.9557  -2.9525  -2.9372  -2.9344
    -0.9887  -0.9085  -0.9014  -0.8943  -0.8742  -0.8442  -0.8387  -0.8153
    -0.6009  -0.5404  -0.5335  -0.4388   0.0101   0.1091   0.1132   0.1277
     0.1298   0.2136   0.2631   0.2655   0.3069   0.3303   0.3573   0.3593
     0.3895   0.4178   0.5908   0.5933   0.6065   0.6136   0.8014   0.8119
     0.8451   0.8569   0.8660   0.8689   0.8777   0.8881   0.9159   0.9201
     0.9248   0.9330   0.9675   0.9722   1.0288   1.0601   1.0909   1.0972
     1.1066   1.1229   1.1307   1.1454   1.1494   1.1666   1.1986   1.2113
     1.2322   1.2420   1.2574   1.2599   1.3154   1.4049   1.4098   1.4404
     1.4966   1.5313   1.5813   1.5911   1.6035   1.6188   1.6264   1.7036

          k = 0.1254 0.3750 0.1273 (306078 PWs)   bands (ev):

   -17.8026 -17.8009 -17.7609 -17.7536 -17.7511 -17.7462 -17.7410 -17.7401
   -14.3434 -14.3306 -14.3295 -14.3288 -14.3271 -14.3187 -14.3154 -14.3144
   -14.3130 -14.3091 -14.3060 -14.3050 -14.3028 -14.2967 -14.2963 -14.2955
   -14.2951 -14.2946 -14.2926 -14.2915 -14.2833 -14.2821 -14.2808 -14.2785
   -14.2773 -14.2748 -14.2726 -14.2696 -14.2688 -14.2676 -14.2661 -14.2655
   -14.2630 -14.2617 -14.2600 -14.2593 -14.2573 -14.2568 -14.2505 -14.2494
   -10.8255 -10.8119 -10.7888 -10.7867 -10.7808 -10.7780 -10.7778 -10.7725
    -9.7901  -9.7172  -9.6189  -9.5992  -9.5446  -9.5290  -9.4352  -9.4191
    -9.3474  -9.3348  -9.3330  -9.3258  -9.3200  -9.3137  -9.2834  -9.2736
    -9.2523  -9.2108  -9.2024  -9.1668  -9.1383  -9.1265  -9.1050  -9.0917
    -7.3095  -7.3002  -7.2689  -7.2666  -7.2515  -7.2411  -7.2335  -7.2215
    -7.1079  -7.1018  -7.0945  -7.0857  -7.0783  -7.0687  -7.0626  -7.0602
    -5.9241  -5.7403  -5.4781  -5.3670  -5.3222  -5.1918  -5.1890  -5.1739
    -5.1482  -5.1454  -5.1358  -5.1348  -5.1311  -5.1218  -4.9159  -4.7544
    -3.0562  -3.0310  -3.0253  -3.0240  -3.0215  -3.0192  -3.0119  -3.0011
    -2.9861  -2.9740  -2.9721  -2.9630  -2.9530  -2.9477  -2.9428  -2.9408
    -1.0936  -1.0424  -0.9897  -0.9823  -0.9603  -0.9325  -0.8455  -0.8334
    -0.5582  -0.5164  -0.4258  -0.3966   0.0366   0.0902   0.1296   0.1593
     0.1789   0.2012   0.2231   0.2384   0.2928   0.3077   0.3482   0.3964
     0.4095   0.4623   0.5740   0.5989   0.6151   0.6904   0.6961   0.7818
     0.8034   0.8300   0.8400   0.8544   0.8646   0.8745   0.8831   0.9043
     0.9165   0.9367   0.9457   0.9952   1.0258   1.0428   1.1261   1.1416
     1.1444   1.1544   1.1585   1.1743   1.1819   1.1968   1.2133   1.2431
     1.2599   1.2729   1.2956   1.3336   1.3620   1.3969   1.4118   1.4588
     1.5177   1.5271   1.5501   1.5846   1.5927   1.6729   1.8871   1.9141

          k = 0.1254 0.3750 0.3818 (306055 PWs)   bands (ev):

   -17.8026 -17.8009 -17.7609 -17.7536 -17.7511 -17.7462 -17.7409 -17.7402
   -14.3397 -14.3343 -14.3294 -14.3287 -14.3237 -14.3180 -14.3153 -14.3150
   -14.3128 -14.3094 -14.3061 -14.3049 -14.3028 -14.3003 -14.2963 -14.2956
   -14.2951 -14.2946 -14.2925 -14.2915 -14.2832 -14.2821 -14.2808 -14.2784
   -14.2773 -14.2748 -14.2726 -14.2696 -14.2688 -14.2676 -14.2662 -14.2655
   -14.2630 -14.2617 -14.2600 -14.2593 -14.2574 -14.2568 -14.2505 -14.2495
   -10.8253 -10.8117 -10.7879 -10.7869 -10.7802 -10.7790 -10.7780 -10.7730
    -9.7541  -9.6873  -9.6776  -9.6149  -9.5642  -9.5077  -9.4976  -9.4630
    -9.3451  -9.3392  -9.3216  -9.3177  -9.2844  -9.2645  -9.2519  -9.2435
    -9.2198  -9.2088  -9.1883  -9.1815  -9.1522  -9.1381  -9.1338  -9.1236
    -7.3054  -7.2933  -7.2607  -7.2574  -7.2569  -7.2444  -7.2423  -7.2285
    -7.1059  -7.0978  -7.0933  -7.0903  -7.0740  -7.0706  -7.0673  -7.0616
    -5.7786  -5.5979  -5.5502  -5.3709  -5.3428  -5.2256  -5.1895  -5.1780
    -5.1621  -5.1434  -5.1363  -5.1329  -5.1234  -5.1086  -5.0803  -4.9376
    -3.0548  -3.0288  -3.0238  -3.0225  -3.0218  -3.0191  -3.0131  -3.0021
    -2.9842  -2.9755  -2.9694  -2.9653  -2.9516  -2.9484  -2.9428  -2.9407
    -0.9547  -0.9490  -0.8939  -0.8821  -0.6832  -0.6071  -0.5866  -0.4865
    -0.4798  -0.4573  -0.4351  -0.3961  -0.0202   0.0443   0.0480   0.0716
     0.1157   0.1349   0.1698   0.1927   0.2432   0.2481   0.2701   0.3352
     0.3458   0.4292   0.4368   0.4465   0.5892   0.6129   0.6503   0.6940
     0.7019   0.7249   0.7742   0.7875   0.8118   0.8205   0.8767   0.8900
     0.9137   0.9708   1.0042   1.0138   1.0183   1.0906   1.1047   1.1152
     1.1224   1.1437   1.1472   1.2020   1.2341   1.2454   1.2526   1.2636
     1.2686   1.2818   1.2867   1.2913   1.2986   1.3608   1.3724   1.4033
     1.4155   1.4171   1.4269   1.4523   1.5878   1.5986   1.6220   1.6612

          k = 0.3763 0.1250 0.1273 (306118 PWs)   bands (ev):

   -17.8025 -17.8009 -17.7609 -17.7536 -17.7511 -17.7462 -17.7410 -17.7401
   -14.3435 -14.3310 -14.3301 -14.3287 -14.3259 -14.3193 -14.3141 -14.3135
   -14.3114 -14.3101 -14.3066 -14.3062 -14.3042 -14.2971 -14.2963 -14.2951
   -14.2950 -14.2937 -14.2926 -14.2915 -14.2833 -14.2821 -14.2808 -14.2784
   -14.2773 -14.2748 -14.2727 -14.2697 -14.2688 -14.2676 -14.2661 -14.2655
   -14.2630 -14.2617 -14.2600 -14.2593 -14.2573 -14.2568 -14.2505 -14.2494
   -10.8249 -10.8130 -10.7878 -10.7854 -10.7828 -10.7792 -10.7761 -10.7728
    -9.7901  -9.7128  -9.6196  -9.6054  -9.5423  -9.5327  -9.4364  -9.4184
    -9.3484  -9.3391  -9.3321  -9.3245  -9.3172  -9.2983  -9.2897  -9.2710
    -9.2535  -9.2117  -9.2086  -9.1635  -9.1369  -9.1301  -9.1125  -9.0842
    -7.3095  -7.3003  -7.2683  -7.2672  -7.2516  -7.2415  -7.2327  -7.2218
    -7.1086  -7.0997  -7.0960  -7.0857  -7.0784  -7.0679  -7.0629  -7.0604
    -5.9202  -5.7283  -5.4920  -5.3634  -5.3274  -5.1896  -5.1824  -5.1740
    -5.1464  -5.1428  -5.1391  -5.1367  -5.1271  -5.1239  -4.9281  -4.7598
    -3.0557  -3.0322  -3.0289  -3.0254  -3.0185  -3.0165  -3.0110  -3.0025
    -2.9853  -2.9741  -2.9707  -2.9606  -2.9550  -2.9497  -2.9433  -2.9407
    -1.0944  -1.0411  -0.9871  -0.9788  -0.9455  -0.9308  -0.8428  -0.8143
    -0.5622  -0.5219  -0.4236  -0.4051   0.0382   0.0990   0.1353   0.1723
     0.1902   0.1997   0.2236   0.2415   0.2880   0.2989   0.3472   0.3907
     0.3982   0.4600   0.5748   0.6040   0.6210   0.6968   0.6977   0.7843
     0.8092   0.8173   0.8427   0.8510   0.8594   0.8705   0.8827   0.9031
     0.9235   0.9365   0.9435   0.9998   1.0103   1.0514   1.1272   1.1352
     1.1426   1.1488   1.1620   1.1662   1.1783   1.1925   1.2126   1.2541
     1.2625   1.2678   1.2964   1.3412   1.3721   1.4024   1.4190   1.4548
     1.5002   1.5276   1.5441   1.5605   1.5752   1.6732   1.8718   1.9038

          k = 0.3763 0.1250 0.3818 (306060 PWs)   bands (ev):

   -17.8025 -17.8009 -17.7609 -17.7536 -17.7511 -17.7462 -17.7409 -17.7402
   -14.3398 -14.3344 -14.3295 -14.3290 -14.3230 -14.3175 -14.3158 -14.3136
   -14.3113 -14.3099 -14.3078 -14.3059 -14.3038 -14.3003 -14.2963 -14.2952
   -14.2951 -14.2939 -14.2925 -14.2915 -14.2832 -14.2821 -14.2808 -14.2784
   -14.2773 -14.2748 -14.2727 -14.2696 -14.2688 -14.2676 -14.2662 -14.2655
   -14.2630 -14.2617 -14.2600 -14.2593 -14.2574 -14.2568 -14.2505 -14.2495
   -10.8247 -10.8128 -10.7871 -10.7857 -10.7818 -10.7800 -10.7766 -10.7732
    -9.7542  -9.6873  -9.6738  -9.6117  -9.5702  -9.5112  -9.5010  -9.4650
    -9.3477  -9.3431  -9.3094  -9.3005  -9.2829  -9.2628  -9.2556  -9.2492
    -9.2272  -9.2153  -9.1844  -9.1792  -9.1581  -9.1391  -9.1356  -9.1159
    -7.3054  -7.2933  -7.2605  -7.2574  -7.2571  -7.2447  -7.2419  -7.2285
    -7.1061  -7.0965  -7.0945  -7.0902  -7.0744  -7.0695  -7.0676  -7.0620
    -5.7748  -5.5865  -5.5461  -5.3631  -5.3534  -5.2282  -5.1929  -5.1796
    -5.1593  -5.1492  -5.1354  -5.1306  -5.1257  -5.1107  -5.0873  -4.9425
    -3.0547  -3.0291  -3.0252  -3.0229  -3.0205  -3.0184  -3.0128  -3.0027
    -2.9834  -2.9754  -2.9690  -2.9621  -2.9539  -2.9504  -2.9433  -2.9406
    -0.9560  -0.9315  -0.8901  -0.8622  -0.6709  -0.6032  -0.5851  -0.4880
    -0.4817  -0.4705  -0.4427  -0.4093  -0.0076   0.0511   0.0576   0.0740
     0.1242   0.1354   0.1670   0.1726   0.2438   0.2481   0.2710   0.3344
     0.3519   0.4356   0.4450   0.4502   0.5912   0.6135   0.6504   0.6863
     0.7038   0.7112   0.7730   0.7862   0.8076   0.8221   0.8790   0.8931
     0.9174   0.9660   1.0033   1.0087   1.0199   1.0858   1.1036   1.1119
     1.1233   1.1452   1.1559   1.1965   1.2312   1.2457   1.2503   1.2590
     1.2660   1.2762   1.2917   1.2967   1.3015   1.3654   1.3838   1.3978
     1.4179   1.4203   1.4269   1.4623   1.5636   1.5753   1.5998   1.6380

          k = 0.3763 0.3750 0.1273 (306188 PWs)   bands (ev):

   -17.8025 -17.8009 -17.7609 -17.7536 -17.7511 -17.7462 -17.7410 -17.7401
   -14.3433 -14.3305 -14.3289 -14.3282 -14.3268 -14.3191 -14.3148 -14.3138
   -14.3119 -14.3098 -14.3066 -14.3053 -14.3032 -14.2971 -14.2963 -14.2962
   -14.2952 -14.2950 -14.2926 -14.2915 -14.2833 -14.2821 -14.2808 -14.2784
   -14.2773 -14.2748 -14.2726 -14.2696 -14.2688 -14.2676 -14.2661 -14.2655
   -14.2629 -14.2617 -14.2600 -14.2593 -14.2573 -14.2568 -14.2505 -14.2494
   -10.8250 -10.8129 -10.7880 -10.7858 -10.7814 -10.7804 -10.7749 -10.7736
    -9.7454  -9.6834  -9.6787  -9.5994  -9.5858  -9.5110  -9.5064  -9.4744
    -9.3428  -9.3299  -9.3178  -9.3128  -9.2735  -9.2658  -9.2499  -9.2399
    -9.2321  -9.2242  -9.1994  -9.1723  -9.1596  -9.1418  -9.1197  -9.1119
    -7.3095  -7.3003  -7.2683  -7.2673  -7.2516  -7.2419  -7.2328  -7.2220
    -7.1069  -7.1013  -7.0954  -7.0855  -7.0788  -7.0682  -7.0625  -7.0608
    -5.8092  -5.6270  -5.6140  -5.4608  -5.2763  -5.1940  -5.1787  -5.1561
    -5.1483  -5.1433  -5.1301  -5.1287  -5.1238  -5.0566  -5.0456  -4.8925
    -3.0554  -3.0298  -3.0265  -3.0228  -3.0209  -3.0192  -3.0132  -3.0025
    -2.9802  -2.9697  -2.9664  -2.9589  -2.9556  -2.9523  -2.9507  -2.9454
    -1.0586  -1.0231  -1.0186  -0.9591  -0.6843  -0.6759  -0.5755  -0.5331
    -0.5277  -0.4929  -0.4269  -0.4120   0.0020   0.0421   0.1149   0.1740
     0.1785   0.1869   0.1912   0.1968   0.2101   0.2805   0.3067   0.3304
     0.3912   0.4374   0.4472   0.5379   0.5436   0.5729   0.5775   0.6571
     0.6659   0.6732   0.7594   0.7851   0.8188   0.8368   0.8661   0.8821
     0.9053   0.9450   0.9554   0.9915   1.0414   1.1242   1.1296   1.1391
     1.1484   1.1570   1.1763   1.1971   1.2071   1.2172   1.2696   1.2810
     1.2877   1.3191   1.3257   1.3362   1.3398   1.4008   1.4106   1.4357
     1.4727   1.4809   1.4832   1.4998   1.5319   1.6662   1.6937   1.7257

          k = 0.3763 0.3750 0.3818 (306099 PWs)   bands (ev):

   -17.8025 -17.8009 -17.7609 -17.7536 -17.7511 -17.7462 -17.7409 -17.7402
   -14.3396 -14.3341 -14.3287 -14.3281 -14.3236 -14.3179 -14.3156 -14.3142
   -14.3118 -14.3097 -14.3066 -14.3054 -14.3033 -14.3007 -14.2963 -14.2962
   -14.2952 -14.2950 -14.2925 -14.2915 -14.2832 -14.2821 -14.2808 -14.2784
   -14.2773 -14.2748 -14.2726 -14.2696 -14.2688 -14.2676 -14.2662 -14.2655
   -14.2629 -14.2617 -14.2600 -14.2593 -14.2574 -14.2568 -14.2505 -14.2495
   -10.8248 -10.8127 -10.7875 -10.7857 -10.7812 -10.7804 -10.7753 -10.7743
    -9.7125  -9.6524  -9.6445  -9.6391  -9.5833  -9.5780  -9.5672  -9.5261
    -9.2985  -9.2932  -9.2801  -9.2768  -9.2674  -9.2530  -9.2407  -9.2372
    -9.2258  -9.2028  -9.1970  -9.1810  -9.1701  -9.1618  -9.1487  -9.1423
    -7.3054  -7.2934  -7.2606  -7.2575  -7.2569  -7.2450  -7.2418  -7.2287
    -7.1050  -7.0974  -7.0940  -7.0900  -7.0743  -7.0698  -7.0672  -7.0625
    -5.6682  -5.4884  -5.4752  -5.4466  -5.3378  -5.2700  -5.2562  -5.2028
    -5.1774  -5.1559  -5.1366  -5.1343  -5.1299  -5.1163  -5.1145  -5.0565
    -3.0547  -3.0289  -3.0243  -3.0223  -3.0211  -3.0199  -3.0134  -3.0025
    -2.9790  -2.9704  -2.9643  -2.9586  -2.9544  -2.9539  -2.9487  -2.9472
    -0.7153  -0.6857  -0.6774  -0.5916  -0.5861  -0.5435  -0.5367  -0.5267
    -0.5092  -0.4856  -0.4717  -0.3406  -0.0330   0.0316   0.0391   0.0494
     0.0832   0.0862   0.1076   0.1844   0.1865   0.1879   0.1994   0.2045
     0.4720   0.4801   0.4876   0.5054   0.5130   0.5187   0.5209   0.6577
     0.6626   0.6662   0.6799   0.7300   0.7563   0.7629   0.7713   0.7813
     0.8679   0.8810   0.9530   0.9573   0.9652   0.9744   1.0141   1.1498
     1.1999   1.2113   1.2208   1.2285   1.2363   1.2622   1.2664   1.2694
     1.2786   1.2912   1.2954   1.3111   1.3199   1.3359   1.3455   1.3689
     1.3743   1.4179   1.4556   1.4682   1.4761   1.4782   1.4908   1.5032

          k =-0.1254-0.1250 0.1273 (306055 PWs)   bands (ev):

   -17.8026 -17.8009 -17.7609 -17.7536 -17.7511 -17.7462 -17.7410 -17.7401
   -14.3436 -14.3310 -14.3306 -14.3294 -14.3263 -14.3189 -14.3146 -14.3142
   -14.3125 -14.3094 -14.3061 -14.3058 -14.3036 -14.2964 -14.2963 -14.2951
   -14.2945 -14.2933 -14.2926 -14.2915 -14.2833 -14.2821 -14.2808 -14.2785
   -14.2773 -14.2748 -14.2727 -14.2697 -14.2688 -14.2676 -14.2661 -14.2655
   -14.2630 -14.2617 -14.2600 -14.2593 -14.2573 -14.2568 -14.2505 -14.2494
   -10.8256 -10.8127 -10.7886 -10.7870 -10.7823 -10.7789 -10.7774 -10.7692
    -9.8348  -9.6585  -9.6398  -9.6331  -9.4652  -9.4603  -9.4543  -9.3868
    -9.3504  -9.3391  -9.3358  -9.3325  -9.3303  -9.3255  -9.2980  -9.2903
    -9.2839  -9.2718  -9.2681  -9.1220  -9.1137  -9.1049  -9.0936  -9.0864
    -7.3096  -7.3003  -7.2690  -7.2667  -7.2519  -7.2414  -7.2326  -7.2210
    -7.1096  -7.1002  -7.0951  -7.0857  -7.0781  -7.0685  -7.0631  -7.0596
    -6.0409  -5.6027  -5.5849  -5.4727  -5.2020  -5.1844  -5.1817  -5.1476
    -5.1442  -5.1415  -5.1332  -5.1267  -5.1153  -5.0439  -5.0273  -4.6200
    -3.0567  -3.0341  -3.0273  -3.0249  -3.0196  -3.0171  -3.0095  -3.0014
    -2.9909  -2.9803  -2.9688  -2.9599  -2.9576  -2.9509  -2.9366  -2.9348
    -1.1160  -1.0101  -1.0016  -0.9865  -0.9333  -0.9294  -0.9093  -0.8997
    -0.8490  -0.7994  -0.7943  -0.7703   0.0936   0.0971   0.1792   0.1936
     0.2236   0.2621   0.3241   0.4401   0.4474   0.5276   0.5453   0.5597
     0.5799   0.6048   0.6175   0.6348   0.6373   0.7523   0.7834   0.7900
     0.8021   0.8115   0.8300   0.8349   0.8450   0.8503   0.9029   0.9350
     0.9404   0.9622   0.9659   1.0173   1.0311   1.0623   1.0918   1.1021
     1.1068   1.1116   1.1193   1.1291   1.1402   1.1495   1.1638   1.1757
     1.1814   1.2053   1.2737   1.4311   1.4726   1.4920   1.5033   1.5083
     1.5228   1.5364   1.5917   1.6077   1.6159   1.8603   1.8842   1.9775

          k =-0.1254 0.1250-0.1273 (306055 PWs)   bands (ev):

   -17.8026 -17.8009 -17.7609 -17.7536 -17.7511 -17.7462 -17.7410 -17.7401
   -14.3436 -14.3310 -14.3306 -14.3294 -14.3263 -14.3189 -14.3146 -14.3142
   -14.3125 -14.3094 -14.3061 -14.3058 -14.3036 -14.2964 -14.2964 -14.2951
   -14.2945 -14.2933 -14.2926 -14.2915 -14.2833 -14.2821 -14.2808 -14.2785
   -14.2773 -14.2748 -14.2727 -14.2697 -14.2688 -14.2676 -14.2661 -14.2655
   -14.2630 -14.2617 -14.2600 -14.2593 -14.2573 -14.2568 -14.2505 -14.2494
   -10.8257 -10.8130 -10.7885 -10.7873 -10.7829 -10.7789 -10.7770 -10.7681
    -9.8371  -9.6570  -9.6376  -9.6299  -9.4687  -9.4627  -9.4585  -9.3701
    -9.3556  -9.3479  -9.3395  -9.3320  -9.3302  -9.3231  -9.3150  -9.2955
    -9.2702  -9.2670  -9.2554  -9.1328  -9.1076  -9.1071  -9.0951  -9.0836
    -7.3095  -7.3003  -7.2689  -7.2666  -7.2517  -7.2411  -7.2329  -7.2212
    -7.1096  -7.1003  -7.0951  -7.0858  -7.0780  -7.0685  -7.0631  -7.0597
    -6.0396  -5.6044  -5.5870  -5.4701  -5.2006  -5.1877  -5.1832  -5.1515
    -5.1502  -5.1406  -5.1317  -5.1228  -5.1116  -5.0422  -5.0273  -4.6175
    -3.0568  -3.0350  -3.0271  -3.0248  -3.0201  -3.0168  -3.0095  -3.0015
    -2.9901  -2.9784  -2.9697  -2.9608  -2.9581  -2.9519  -2.9359  -2.9340
    -1.1220  -1.0935  -1.0085  -0.9977  -0.9469  -0.9161  -0.9089  -0.9046
    -0.8054  -0.7855  -0.7728  -0.6844   0.0900   0.1028   0.1882   0.2005
     0.2283   0.2570   0.3130   0.4073   0.4116   0.4472   0.5316   0.5354
     0.5997   0.6109   0.6362   0.6497   0.6690   0.6791   0.7345   0.7886
     0.7973   0.8327   0.8703   0.8709   0.8863   0.9012   0.9316   0.9405
     0.9455   0.9517   0.9710   1.0192   1.0285   1.0459   1.0646   1.0747
     1.0826   1.0852   1.1118   1.1240   1.1401   1.1565   1.1675   1.1723
     1.1841   1.2272   1.2841   1.4387   1.4495   1.4823   1.4979   1.5061
     1.5168   1.5259   1.5331   1.5804   1.7620   1.8511   1.8731   2.0804

          k = 0.1254-0.1250-0.1273 (306055 PWs)   bands (ev):

   -17.8026 -17.8009 -17.7609 -17.7536 -17.7511 -17.7462 -17.7410 -17.7401
   -14.3436 -14.3310 -14.3306 -14.3294 -14.3263 -14.3189 -14.3146 -14.3142
   -14.3125 -14.3094 -14.3061 -14.3058 -14.3036 -14.2964 -14.2964 -14.2951
   -14.2945 -14.2933 -14.2926 -14.2915 -14.2833 -14.2821 -14.2808 -14.2785
   -14.2773 -14.2748 -14.2727 -14.2697 -14.2688 -14.2676 -14.2661 -14.2655
   -14.2630 -14.2617 -14.2600 -14.2593 -14.2573 -14.2568 -14.2505 -14.2494
   -10.8257 -10.8130 -10.7885 -10.7873 -10.7830 -10.7789 -10.7770 -10.7681
    -9.8371  -9.6570  -9.6369  -9.6306  -9.4674  -9.4652  -9.4577  -9.3700
    -9.3543  -9.3477  -9.3397  -9.3330  -9.3284  -9.3252  -9.3147  -9.2960
    -9.2708  -9.2662  -9.2551  -9.1326  -9.1075  -9.1071  -9.0952  -9.0838
    -7.3095  -7.3003  -7.2689  -7.2666  -7.2517  -7.2411  -7.2330  -7.2212
    -7.1095  -7.1003  -7.0951  -7.0858  -7.0780  -7.0685  -7.0629  -7.0598
    -6.0396  -5.6045  -5.5867  -5.4702  -5.2008  -5.1873  -5.1837  -5.1517
    -5.1500  -5.1406  -5.1317  -5.1227  -5.1116  -5.0429  -5.0266  -4.6174
    -3.0570  -3.0348  -3.0274  -3.0248  -3.0200  -3.0167  -3.0094  -3.0012
    -2.9909  -2.9781  -2.9695  -2.9608  -2.9586  -2.9516  -2.9359  -2.9340
    -1.1224  -1.0956  -1.0084  -1.0035  -0.9467  -0.9163  -0.9116  -0.8957
    -0.8025  -0.7855  -0.7721  -0.6840   0.0905   0.1026   0.1877   0.2017
     0.2275   0.2572   0.3125   0.4011   0.4172   0.4449   0.5130   0.5481
     0.6016   0.6230   0.6280   0.6454   0.6678   0.6818   0.7341   0.7839
     0.8121   0.8283   0.8704   0.8732   0.8899   0.8992   0.9313   0.9361
     0.9444   0.9558   0.9714   1.0142   1.0321   1.0485   1.0637   1.0698
     1.0745   1.0881   1.1147   1.1221   1.1336   1.1632   1.1667   1.1740
     1.1862   1.2273   1.2842   1.4391   1.4489   1.4826   1.4976   1.5051
     1.5149   1.5267   1.5308   1.5835   1.7620   1.8555   1.8700   2.0843

          k =-0.1254-0.1250 0.3818 (306030 PWs)   bands (ev):

   -17.8026 -17.8009 -17.7609 -17.7536 -17.7511 -17.7462 -17.7409 -17.7402
   -14.3399 -14.3345 -14.3301 -14.3295 -14.3232 -14.3177 -14.3155 -14.3144
   -14.3122 -14.3096 -14.3074 -14.3054 -14.3032 -14.2997 -14.2964 -14.2951
   -14.2946 -14.2934 -14.2925 -14.2915 -14.2832 -14.2821 -14.2808 -14.2785
   -14.2773 -14.2748 -14.2727 -14.2697 -14.2688 -14.2676 -14.2662 -14.2655
   -14.2630 -14.2617 -14.2600 -14.2593 -14.2574 -14.2568 -14.2505 -14.2495
   -10.8254 -10.8124 -10.7876 -10.7872 -10.7817 -10.7795 -10.7785 -10.7693
    -9.7958  -9.7286  -9.6033  -9.5973  -9.5345  -9.5295  -9.4439  -9.4109
    -9.3453  -9.3416  -9.3372  -9.3339  -9.3185  -9.3015  -9.2880  -9.2861
    -9.2497  -9.1995  -9.1941  -9.1644  -9.1348  -9.1287  -9.1079  -9.1064
    -7.3054  -7.2933  -7.2607  -7.2573  -7.2570  -7.2450  -7.2415  -7.2282
    -7.1068  -7.0970  -7.0937  -7.0903  -7.0741  -7.0704  -7.0677  -7.0611
    -5.8919  -5.6588  -5.4622  -5.4449  -5.2395  -5.2226  -5.1915  -5.1800
    -5.1540  -5.1487  -5.1402  -5.1369  -5.1321  -5.1152  -5.0278  -4.8097
    -3.0548  -3.0287  -3.0251  -3.0221  -3.0206  -3.0182  -3.0126  -3.0025
    -2.9891  -2.9834  -2.9671  -2.9608  -2.9558  -2.9527  -2.9370  -2.9346
    -0.9806  -0.9091  -0.9022  -0.8946  -0.8717  -0.8439  -0.8382  -0.8162
    -0.6091  -0.5442  -0.5391  -0.4418   0.0120   0.1120   0.1147   0.1294
     0.1450   0.1948   0.2673   0.2711   0.3111   0.3382   0.3555   0.3563
     0.3860   0.4166   0.5940   0.6025   0.6071   0.6121   0.7942   0.8156
     0.8402   0.8512   0.8560   0.8612   0.8662   0.8773   0.9199   0.9279
     0.9344   0.9400   0.9657   0.9758   1.0275   1.0536   1.1008   1.1059
     1.1170   1.1234   1.1293   1.1365   1.1428   1.1613   1.2096   1.2256
     1.2409   1.2421   1.2497   1.2654   1.3160   1.3967   1.4018   1.4272
     1.5005   1.5336   1.5868   1.5935   1.5988   1.6203   1.6272   1.6940

          k =-0.1254 0.1250-0.3818 (306030 PWs)   bands (ev):

   -17.8026 -17.8009 -17.7609 -17.7536 -17.7511 -17.7462 -17.7409 -17.7402
   -14.3399 -14.3345 -14.3301 -14.3295 -14.3232 -14.3177 -14.3155 -14.3144
   -14.3122 -14.3096 -14.3074 -14.3054 -14.3032 -14.2997 -14.2964 -14.2951
   -14.2946 -14.2934 -14.2925 -14.2915 -14.2832 -14.2821 -14.2808 -14.2785
   -14.2773 -14.2748 -14.2727 -14.2697 -14.2688 -14.2676 -14.2662 -14.2655
   -14.2630 -14.2617 -14.2600 -14.2593 -14.2574 -14.2568 -14.2505 -14.2495
   -10.8255 -10.8127 -10.7876 -10.7875 -10.7827 -10.7794 -10.7781 -10.7682
    -9.7979  -9.7280  -9.6024  -9.5943  -9.5358  -9.5323  -9.4354  -9.3956
    -9.3644  -9.3547  -9.3355  -9.3323  -9.3263  -9.3192  -9.2734  -9.2630
    -9.2513  -9.2000  -9.1941  -9.1683  -9.1351  -9.1295  -9.1081  -9.1043
    -7.3054  -7.2932  -7.2606  -7.2573  -7.2570  -7.2447  -7.2418  -7.2283
    -7.1068  -7.0970  -7.0937  -7.0903  -7.0740  -7.0704  -7.0678  -7.0611
    -5.8901  -5.6567  -5.4643  -5.4479  -5.2468  -5.2287  -5.1897  -5.1801
    -5.1524  -5.1472  -5.1416  -5.1357  -5.1296  -5.1116  -5.0248  -4.8079
    -3.0548  -3.0297  -3.0245  -3.0224  -3.0209  -3.0179  -3.0129  -3.0026
    -2.9878  -2.9818  -2.9684  -2.9618  -2.9563  -2.9538  -2.9358  -2.9340
    -1.0642  -0.9973  -0.8907  -0.8752  -0.8312  -0.8208  -0.8099  -0.7368
    -0.5977  -0.5389  -0.5330  -0.4429   0.0089   0.1126   0.1156   0.1332
     0.1472   0.2096   0.2662   0.2710   0.2752   0.3272   0.3455   0.3522
     0.3611   0.4164   0.5821   0.6083   0.6098   0.6162   0.7709   0.7816
     0.7884   0.8378   0.8434   0.8570   0.8690   0.8893   0.9355   0.9615
     0.9663   0.9777   0.9895   1.0048   1.0297   1.0454   1.0692   1.0859
     1.0945   1.1048   1.1232   1.1326   1.1435   1.1863   1.1946   1.2215
     1.2437   1.2513   1.2623   1.2726   1.3353   1.3943   1.4050   1.4189
     1.4770   1.5092   1.5220   1.5264   1.5773   1.6079   1.7764   1.8379

          k = 0.1254-0.1250-0.3818 (306030 PWs)   bands (ev):

   -17.8026 -17.8009 -17.7609 -17.7536 -17.7511 -17.7462 -17.7409 -17.7402
   -14.3399 -14.3345 -14.3301 -14.3295 -14.3232 -14.3177 -14.3155 -14.3144
   -14.3122 -14.3096 -14.3074 -14.3054 -14.3032 -14.2997 -14.2964 -14.2951
   -14.2946 -14.2934 -14.2925 -14.2915 -14.2832 -14.2821 -14.2808 -14.2785
   -14.2773 -14.2748 -14.2727 -14.2697 -14.2688 -14.2676 -14.2662 -14.2655
   -14.2630 -14.2617 -14.2600 -14.2593 -14.2574 -14.2568 -14.2505 -14.2495
   -10.8255 -10.8127 -10.7877 -10.7873 -10.7827 -10.7794 -10.7780 -10.7682
    -9.7979  -9.7280  -9.6008  -9.5960  -9.5379  -9.5303  -9.4363  -9.3941
    -9.3641  -9.3550  -9.3370  -9.3310  -9.3268  -9.3188  -9.2743  -9.2618
    -9.2521  -9.1996  -9.1939  -9.1681  -9.1351  -9.1297  -9.1081  -9.1046
    -7.3054  -7.2932  -7.2606  -7.2573  -7.2570  -7.2445  -7.2420  -7.2283
    -7.1068  -7.0970  -7.0936  -7.0905  -7.0742  -7.0704  -7.0675  -7.0612
    -5.8901  -5.6567  -5.4649  -5.4470  -5.2443  -5.2324  -5.1890  -5.1809
    -5.1522  -5.1468  -5.1423  -5.1349  -5.1297  -5.1115  -5.0248  -4.8077
    -3.0550  -3.0293  -3.0250  -3.0227  -3.0207  -3.0178  -3.0125  -3.0025
    -2.9889  -2.9811  -2.9682  -2.9619  -2.9570  -2.9531  -2.9358  -2.9341
    -1.0640  -0.9976  -0.8899  -0.8798  -0.8316  -0.8236  -0.8141  -0.7338
    -0.5908  -0.5362  -0.5283  -0.4411   0.0065   0.1072   0.1134   0.1327
     0.1486   0.2084   0.2617   0.2743   0.2757   0.3313   0.3415   0.3547
     0.3585   0.4155   0.5822   0.6032   0.6104   0.6223   0.7714   0.7804
     0.7886   0.8375   0.8500   0.8605   0.8641   0.8872   0.9365   0.9623
     0.9695   0.9769   0.9895   1.0055   1.0309   1.0414   1.0686   1.0815
     1.0910   1.1081   1.1242   1.1317   1.1454   1.1849   1.1979   1.2213
     1.2337   1.2601   1.2626   1.2726   1.3369   1.3934   1.4039   1.4157
     1.4754   1.5108   1.5199   1.5303   1.5802   1.6068   1.7758   1.8404

          k =-0.1254-0.3750 0.1273 (306078 PWs)   bands (ev):

   -17.8026 -17.8009 -17.7609 -17.7536 -17.7511 -17.7462 -17.7410 -17.7401
   -14.3434 -14.3306 -14.3295 -14.3288 -14.3271 -14.3187 -14.3154 -14.3144
   -14.3130 -14.3091 -14.3060 -14.3050 -14.3028 -14.2967 -14.2963 -14.2955
   -14.2951 -14.2946 -14.2926 -14.2915 -14.2833 -14.2821 -14.2808 -14.2785
   -14.2773 -14.2748 -14.2726 -14.2696 -14.2688 -14.2676 -14.2661 -14.2655
   -14.2630 -14.2617 -14.2600 -14.2593 -14.2573 -14.2568 -14.2505 -14.2494
   -10.8255 -10.8119 -10.7887 -10.7868 -10.7807 -10.7782 -10.7778 -10.7724
    -9.7891  -9.7178  -9.6206  -9.5997  -9.5426  -9.5302  -9.4331  -9.4160
    -9.3512  -9.3364  -9.3328  -9.3272  -9.3213  -9.3132  -9.2816  -9.2730
    -9.2514  -9.2101  -9.2019  -9.1673  -9.1383  -9.1268  -9.1051  -9.0920
    -7.3095  -7.3002  -7.2690  -7.2666  -7.2514  -7.2413  -7.2334  -7.2214
    -7.1079  -7.1018  -7.0944  -7.0857  -7.0783  -7.0687  -7.0629  -7.0600
    -5.9241  -5.7402  -5.4787  -5.3664  -5.3206  -5.1922  -5.1893  -5.1739
    -5.1486  -5.1457  -5.1358  -5.1349  -5.1312  -5.1218  -4.9163  -4.7540
    -3.0562  -3.0306  -3.0256  -3.0236  -3.0213  -3.0191  -3.0121  -3.0013
    -2.9847  -2.9749  -2.9732  -2.9628  -2.9527  -2.9479  -2.9439  -2.9400
    -1.0852  -1.0463  -0.9881  -0.9800  -0.9638  -0.9340  -0.8449  -0.8339
    -0.5630  -0.5222  -0.4263  -0.3983   0.0404   0.0935   0.1273   0.1580
     0.1838   0.1954   0.2212   0.2549   0.2936   0.3072   0.3446   0.3989
     0.4062   0.4657   0.5873   0.5948   0.6055   0.6892   0.6969   0.7826
     0.8008   0.8204   0.8337   0.8630   0.8660   0.8776   0.8821   0.8999
     0.9097   0.9385   0.9520   0.9928   1.0258   1.0453   1.1263   1.1391
     1.1437   1.1543   1.1578   1.1735   1.1841   1.1926   1.2086   1.2485
     1.2720   1.2861   1.2893   1.3425   1.3655   1.3944   1.4089   1.4413
     1.5129   1.5367   1.5583   1.5847   1.5922   1.6673   1.8738   1.9159

          k =-0.1254 0.3750-0.1273 (306078 PWs)   bands (ev):

   -17.8026 -17.8009 -17.7609 -17.7536 -17.7511 -17.7462 -17.7410 -17.7401
   -14.3434 -14.3306 -14.3295 -14.3288 -14.3271 -14.3187 -14.3154 -14.3144
   -14.3130 -14.3091 -14.3060 -14.3050 -14.3028 -14.2967 -14.2964 -14.2955
   -14.2951 -14.2946 -14.2926 -14.2915 -14.2833 -14.2821 -14.2808 -14.2785
   -14.2773 -14.2748 -14.2726 -14.2696 -14.2688 -14.2676 -14.2661 -14.2655
   -14.2630 -14.2617 -14.2600 -14.2593 -14.2573 -14.2568 -14.2505 -14.2494
   -10.8256 -10.8122 -10.7887 -10.7870 -10.7811 -10.7794 -10.7772 -10.7707
    -9.7943  -9.7128  -9.6170  -9.5933  -9.5473  -9.5342  -9.4498  -9.3949
    -9.3525  -9.3392  -9.3357  -9.3263  -9.3233  -9.3175  -9.2905  -9.2672
    -9.2450  -9.2026  -9.1885  -9.1770  -9.1444  -9.1331  -9.1029  -9.0897
    -7.3095  -7.3002  -7.2690  -7.2665  -7.2512  -7.2408  -7.2339  -7.2215
    -7.1079  -7.1019  -7.0944  -7.0857  -7.0782  -7.0687  -7.0629  -7.0601
    -5.9207  -5.7442  -5.4841  -5.3586  -5.3144  -5.2119  -5.1916  -5.1727
    -5.1524  -5.1456  -5.1368  -5.1298  -5.1256  -5.1161  -4.9191  -4.7493
    -3.0563  -3.0317  -3.0252  -3.0234  -3.0221  -3.0186  -3.0121  -3.0012
    -2.9830  -2.9758  -2.9708  -2.9651  -2.9539  -2.9501  -2.9419  -2.9387
    -1.0863  -1.0613  -1.0437  -0.9733  -0.9432  -0.9329  -0.9080  -0.8080
    -0.5148  -0.4375  -0.3862  -0.3207  -0.0224   0.0420   0.1091   0.1534
     0.1722   0.1785   0.2298   0.2508   0.2693   0.2977   0.2990   0.3359
     0.4002   0.4757   0.5807   0.6248   0.6456   0.6506   0.7320   0.8170
     0.8231   0.8307   0.8517   0.8565   0.8721   0.8808   0.9022   0.9094
     0.9206   0.9251   0.9365   0.9617   1.0239   1.0468   1.1119   1.1265
     1.1408   1.1566   1.1620   1.1758   1.1828   1.1849   1.2161   1.2565
     1.2596   1.2719   1.3119   1.3304   1.3526   1.3712   1.4199   1.4365
     1.5136   1.5266   1.5401   1.5556   1.6457   1.7078   1.8721   1.9839

          k = 0.1254-0.3750-0.1273 (306078 PWs)   bands (ev):

   -17.8026 -17.8009 -17.7609 -17.7536 -17.7511 -17.7462 -17.7410 -17.7401
   -14.3434 -14.3306 -14.3295 -14.3288 -14.3271 -14.3187 -14.3154 -14.3144
   -14.3130 -14.3091 -14.3060 -14.3050 -14.3028 -14.2967 -14.2964 -14.2955
   -14.2951 -14.2946 -14.2926 -14.2915 -14.2833 -14.2821 -14.2808 -14.2785
   -14.2773 -14.2748 -14.2726 -14.2696 -14.2688 -14.2676 -14.2661 -14.2655
   -14.2630 -14.2617 -14.2600 -14.2593 -14.2573 -14.2568 -14.2505 -14.2494
   -10.8256 -10.8122 -10.7886 -10.7870 -10.7813 -10.7793 -10.7771 -10.7707
    -9.7948  -9.7117  -9.6160  -9.5941  -9.5496  -9.5346  -9.4471  -9.3939
    -9.3546  -9.3393  -9.3357  -9.3282  -9.3212  -9.3178  -9.2898  -9.2670
    -9.2455  -9.2029  -9.1886  -9.1764  -9.1442  -9.1328  -9.1029  -9.0901
    -7.3095  -7.3002  -7.2689  -7.2665  -7.2512  -7.2409  -7.2339  -7.2215
    -7.1078  -7.1019  -7.0944  -7.0858  -7.0783  -7.0687  -7.0627  -7.0602
    -5.9207  -5.7443  -5.4832  -5.3591  -5.3152  -5.2101  -5.1921  -5.1732
    -5.1532  -5.1453  -5.1371  -5.1294  -5.1262  -5.1162  -4.9183  -4.7493
    -3.0564  -3.0316  -3.0253  -3.0234  -3.0223  -3.0184  -3.0118  -3.0011
    -2.9840  -2.9747  -2.9703  -2.9660  -2.9551  -2.9490  -2.9416  -2.9390
    -1.0956  -1.0563  -1.0382  -0.9769  -0.9420  -0.9353  -0.9073  -0.8086
    -0.5099  -0.4332  -0.3854  -0.3185  -0.0262   0.0379   0.1187   0.1467
     0.1672   0.1771   0.2305   0.2447   0.2691   0.2945   0.3008   0.3361
     0.4138   0.4681   0.5907   0.6211   0.6305   0.6487   0.7570   0.8053
     0.8240   0.8401   0.8490   0.8511   0.8726   0.8839   0.9009   0.9054
     0.9109   0.9313   0.9499   0.9529   1.0291   1.0457   1.1058   1.1235
     1.1438   1.1577   1.1650   1.1688   1.1804   1.1889   1.2319   1.2477
     1.2534   1.2633   1.3144   1.3258   1.3546   1.3728   1.4221   1.4510
     1.5115   1.5194   1.5389   1.5524   1.6547   1.7077   1.8645   1.9903

          k =-0.1254-0.3750 0.3818 (306055 PWs)   bands (ev):

   -17.8026 -17.8009 -17.7609 -17.7536 -17.7511 -17.7462 -17.7409 -17.7402
   -14.3397 -14.3343 -14.3294 -14.3287 -14.3237 -14.3180 -14.3153 -14.3150
   -14.3128 -14.3094 -14.3061 -14.3049 -14.3028 -14.3003 -14.2963 -14.2956
   -14.2951 -14.2946 -14.2925 -14.2915 -14.2832 -14.2821 -14.2808 -14.2784
   -14.2773 -14.2748 -14.2726 -14.2696 -14.2688 -14.2676 -14.2662 -14.2655
   -14.2630 -14.2617 -14.2600 -14.2593 -14.2574 -14.2568 -14.2505 -14.2495
   -10.8253 -10.8116 -10.7875 -10.7873 -10.7799 -10.7792 -10.7782 -10.7729
    -9.7516  -9.6896  -9.6803  -9.6125  -9.5650  -9.5085  -9.4982  -9.4587
    -9.3480  -9.3378  -9.3239  -9.3167  -9.2878  -9.2624  -9.2498  -9.2446
    -9.2172  -9.2086  -9.1897  -9.1800  -9.1529  -9.1379  -9.1344  -9.1243
    -7.3054  -7.2933  -7.2607  -7.2575  -7.2568  -7.2448  -7.2420  -7.2284
    -7.1059  -7.0977  -7.0933  -7.0902  -7.0740  -7.0707  -7.0676  -7.0614
    -5.7789  -5.5975  -5.5495  -5.3720  -5.3443  -5.2194  -5.1880  -5.1780
    -5.1626  -5.1429  -5.1363  -5.1331  -5.1234  -5.1129  -5.0839  -4.9354
    -3.0548  -3.0282  -3.0242  -3.0219  -3.0208  -3.0199  -3.0134  -3.0023
    -2.9816  -2.9778  -2.9707  -2.9646  -2.9510  -2.9489  -2.9439  -2.9400
    -0.9549  -0.9464  -0.8926  -0.8830  -0.6617  -0.5991  -0.5801  -0.4920
    -0.4881  -0.4672  -0.4594  -0.4239   0.0006   0.0572   0.0714   0.0846
     0.1254   0.1370   0.1548   0.1725   0.2425   0.2544   0.2656   0.3220
     0.3636   0.4161   0.4291   0.4666   0.5762   0.6207   0.6524   0.6863
     0.6957   0.7146   0.7860   0.7897   0.8123   0.8248   0.8736   0.8860
     0.9210   0.9658   0.9937   1.0030   1.0236   1.0963   1.1080   1.1178
     1.1281   1.1311   1.1479   1.2078   1.2298   1.2500   1.2583   1.2711
     1.2794   1.2832   1.2952   1.3010   1.3091   1.3459   1.3697   1.3810
     1.3999   1.4082   1.4194   1.4752   1.5865   1.5982   1.6180   1.6623

          k =-0.1254 0.3750-0.3818 (306055 PWs)   bands (ev):

   -17.8026 -17.8009 -17.7609 -17.7536 -17.7511 -17.7462 -17.7409 -17.7402
   -14.3397 -14.3343 -14.3294 -14.3287 -14.3237 -14.3180 -14.3153 -14.3150
   -14.3128 -14.3094 -14.3061 -14.3049 -14.3028 -14.3003 -14.2964 -14.2955
   -14.2951 -14.2946 -14.2925 -14.2915 -14.2832 -14.2821 -14.2808 -14.2784
   -14.2773 -14.2748 -14.2726 -14.2696 -14.2688 -14.2676 -14.2662 -14.2655
   -14.2630 -14.2617 -14.2600 -14.2593 -14.2574 -14.2568 -14.2505 -14.2495
   -10.8254 -10.8120 -10.7878 -10.7871 -10.7807 -10.7795 -10.7784 -10.7709
    -9.7556  -9.6890  -9.6777  -9.6123  -9.5611  -9.5105  -9.5007  -9.4497
    -9.3522  -9.3447  -9.3287  -9.3250  -9.2802  -9.2595  -9.2492  -9.2386
    -9.2110  -9.2038  -9.1978  -9.1803  -9.1592  -9.1399  -9.1350  -9.1190
    -7.3054  -7.2932  -7.2606  -7.2575  -7.2568  -7.2441  -7.2427  -7.2285
    -7.1060  -7.0978  -7.0932  -7.0903  -7.0739  -7.0707  -7.0676  -7.0615
    -5.7743  -5.6026  -5.5437  -5.3801  -5.3530  -5.2108  -5.1936  -5.1796
    -5.1594  -5.1467  -5.1386  -5.1334  -5.1169  -5.1081  -5.0839  -4.9324
    -3.0548  -3.0290  -3.0236  -3.0222  -3.0213  -3.0198  -3.0136  -3.0022
    -2.9791  -2.9749  -2.9734  -2.9666  -2.9528  -2.9510  -2.9412  -2.9388
    -1.0212  -0.9586  -0.9173  -0.8546  -0.6620  -0.5879  -0.5707  -0.4912
    -0.4467  -0.4210  -0.4003  -0.3583  -0.0190   0.0218   0.0375   0.0498
     0.0890   0.1368   0.1578   0.1809   0.2243   0.2520   0.2647   0.3016
     0.3203   0.3857   0.4503   0.4952   0.6002   0.6287   0.6468   0.6637
     0.6972   0.7065   0.7523   0.8011   0.8080   0.8283   0.8792   0.9042
     0.9314   0.9830   0.9900   1.0090   1.0432   1.0947   1.1076   1.1202
     1.1238   1.1328   1.1407   1.2075   1.2295   1.2387   1.2567   1.2622
     1.2735   1.2867   1.3040   1.3089   1.3325   1.3447   1.3553   1.3690
     1.3811   1.3952   1.4116   1.4493   1.5313   1.6048   1.7117   1.7513

          k = 0.1254-0.3750-0.3818 (306055 PWs)   bands (ev):

   -17.8026 -17.8009 -17.7609 -17.7536 -17.7511 -17.7462 -17.7409 -17.7402
   -14.3397 -14.3343 -14.3294 -14.3287 -14.3237 -14.3180 -14.3153 -14.3150
   -14.3128 -14.3094 -14.3061 -14.3049 -14.3028 -14.3003 -14.2964 -14.2955
   -14.2951 -14.2946 -14.2925 -14.2915 -14.2832 -14.2821 -14.2808 -14.2784
   -14.2773 -14.2748 -14.2726 -14.2696 -14.2688 -14.2676 -14.2662 -14.2655
   -14.2630 -14.2617 -14.2600 -14.2593 -14.2574 -14.2568 -14.2505 -14.2495
   -10.8254 -10.8120 -10.7875 -10.7874 -10.7810 -10.7795 -10.7781 -10.7710
    -9.7568  -9.6878  -9.6744  -9.6160  -9.5636  -9.5090  -9.4992  -9.4489
    -9.3542  -9.3434  -9.3303  -9.3244  -9.2775  -9.2604  -9.2516  -9.2375
    -9.2128  -9.2036  -9.1953  -9.1811  -9.1583  -9.1396  -9.1349  -9.1201
    -7.3054  -7.2932  -7.2606  -7.2575  -7.2568  -7.2441  -7.2427  -7.2285
    -7.1059  -7.0977  -7.0932  -7.0904  -7.0741  -7.0706  -7.0673  -7.0616
    -5.7741  -5.6034  -5.5440  -5.3782  -5.3503  -5.2147  -5.1989  -5.1801
    -5.1591  -5.1469  -5.1389  -5.1334  -5.1169  -5.1054  -5.0794  -4.9334
    -3.0550  -3.0288  -3.0238  -3.0225  -3.0220  -3.0186  -3.0132  -3.0023
    -2.9808  -2.9734  -2.9718  -2.9681  -2.9545  -2.9494  -2.9408  -2.9393
    -1.0231  -0.9576  -0.9147  -0.8555  -0.6784  -0.5984  -0.5763  -0.4859
    -0.4407  -0.3974  -0.3875  -0.3389  -0.0443   0.0099   0.0281   0.0404
     0.0762   0.1342   0.1657   0.1901   0.2415   0.2501   0.2631   0.3084
     0.3106   0.3999   0.4610   0.4690   0.5966   0.6185   0.6595   0.6704
     0.7065   0.7159   0.7520   0.7964   0.8042   0.8157   0.8793   0.8996
     0.9400   0.9817   0.9884   1.0225   1.0536   1.0863   1.0935   1.1093
     1.1257   1.1336   1.1486   1.2195   1.2362   1.2439   1.2481   1.2576
     1.2681   1.2878   1.2911   1.3131   1.3263   1.3392   1.3477   1.3775
     1.3930   1.4077   1.4220   1.4337   1.5310   1.6008   1.7115   1.7550

          k =-0.3763-0.1250 0.1273 (306118 PWs)   bands (ev):

   -17.8025 -17.8009 -17.7609 -17.7536 -17.7511 -17.7462 -17.7410 -17.7401
   -14.3435 -14.3310 -14.3301 -14.3287 -14.3259 -14.3193 -14.3141 -14.3135
   -14.3114 -14.3101 -14.3066 -14.3062 -14.3042 -14.2971 -14.2963 -14.2951
   -14.2950 -14.2937 -14.2926 -14.2915 -14.2833 -14.2821 -14.2808 -14.2784
   -14.2773 -14.2748 -14.2727 -14.2697 -14.2688 -14.2676 -14.2661 -14.2655
   -14.2630 -14.2617 -14.2600 -14.2593 -14.2573 -14.2568 -14.2505 -14.2494
   -10.8248 -10.8130 -10.7877 -10.7854 -10.7828 -10.7793 -10.7761 -10.7727
    -9.7892  -9.7135  -9.6213  -9.6056  -9.5404  -9.5338  -9.4350  -9.4154
    -9.3516  -9.3397  -9.3338  -9.3255  -9.3181  -9.2976  -9.2874  -9.2708
    -9.2527  -9.2112  -9.2078  -9.1638  -9.1368  -9.1306  -9.1129  -9.0844
    -7.3095  -7.3003  -7.2683  -7.2673  -7.2515  -7.2415  -7.2327  -7.2218
    -7.1086  -7.0997  -7.0959  -7.0857  -7.0785  -7.0679  -7.0631  -7.0602
    -5.9202  -5.7284  -5.4921  -5.3630  -5.3261  -5.1901  -5.1822  -5.1743
    -5.1469  -5.1428  -5.1391  -5.1368  -5.1272  -5.1240  -4.9288  -4.7593
    -3.0557  -3.0315  -3.0294  -3.0249  -3.0185  -3.0161  -3.0111  -3.0026
    -2.9846  -2.9741  -2.9717  -2.9608  -2.9549  -2.9496  -2.9442  -2.9401
    -1.0831  -1.0374  -0.9876  -0.9830  -0.9539  -0.9339  -0.8429  -0.8148
    -0.5638  -0.5231  -0.4228  -0.4058   0.0397   0.0995   0.1341   0.1720
     0.1888   0.1943   0.2223   0.2572   0.2875   0.3001   0.3442   0.3871
     0.3968   0.4636   0.5924   0.5986   0.6145   0.6961   0.6987   0.7818
     0.8024   0.8195   0.8308   0.8519   0.8698   0.8770   0.8813   0.9014
     0.9146   0.9405   0.9467   0.9986   1.0102   1.0546   1.1297   1.1317
     1.1386   1.1518   1.1593   1.1651   1.1781   1.1892   1.2070   1.2612
     1.2754   1.2810   1.2900   1.3519   1.3749   1.4008   1.4135   1.4305
     1.4974   1.5349   1.5571   1.5611   1.5740   1.6701   1.8609   1.8997

          k =-0.3763 0.1250-0.1273 (306118 PWs)   bands (ev):

   -17.8025 -17.8009 -17.7609 -17.7536 -17.7511 -17.7462 -17.7410 -17.7401
   -14.3435 -14.3310 -14.3301 -14.3287 -14.3259 -14.3193 -14.3141 -14.3135
   -14.3114 -14.3101 -14.3066 -14.3062 -14.3042 -14.2971 -14.2963 -14.2951
   -14.2950 -14.2937 -14.2926 -14.2915 -14.2833 -14.2821 -14.2808 -14.2784
   -14.2773 -14.2748 -14.2727 -14.2697 -14.2688 -14.2676 -14.2661 -14.2655
   -14.2630 -14.2617 -14.2600 -14.2593 -14.2573 -14.2568 -14.2505 -14.2494
   -10.8249 -10.8134 -10.7874 -10.7863 -10.7828 -10.7796 -10.7765 -10.7708
    -9.7947  -9.7075  -9.6166  -9.6004  -9.5477  -9.5376  -9.4478  -9.3948
    -9.3556  -9.3437  -9.3361  -9.3251  -9.3167  -9.3043  -9.2922  -9.2687
    -9.2475  -9.2037  -9.1932  -9.1740  -9.1426  -9.1359  -9.1097  -9.0830
    -7.3094  -7.3003  -7.2683  -7.2672  -7.2513  -7.2412  -7.2331  -7.2219
    -7.1086  -7.0998  -7.0959  -7.0858  -7.0784  -7.0678  -7.0632  -7.0603
    -5.9168  -5.7325  -5.4969  -5.3553  -5.3205  -5.2035  -5.1895  -5.1752
    -5.1523  -5.1443  -5.1362  -5.1311  -5.1236  -5.1172  -4.9304  -4.7549
    -3.0558  -3.0331  -3.0285  -3.0248  -3.0190  -3.0161  -3.0110  -3.0024
    -2.9830  -2.9744  -2.9695  -2.9635  -2.9570  -2.9511  -2.9418  -2.9393
    -1.0898  -1.0540  -1.0296  -0.9802  -0.9418  -0.9279  -0.9006  -0.7955
    -0.5159  -0.4353  -0.3886  -0.3200  -0.0257   0.0475   0.1199   0.1613
     0.1731   0.1939   0.2333   0.2352   0.2646   0.2874   0.2966   0.3339
     0.4034   0.4581   0.5917   0.6285   0.6372   0.6588   0.7569   0.8081
     0.8261   0.8295   0.8481   0.8523   0.8718   0.8768   0.8987   0.9073
     0.9115   0.9331   0.9525   0.9576   1.0135   1.0562   1.1058   1.1229
     1.1447   1.1498   1.1621   1.1688   1.1726   1.1827   1.2310   1.2489
     1.2564   1.2659   1.3156   1.3387   1.3595   1.3768   1.4306   1.4472
     1.4857   1.5003   1.5350   1.5525   1.6550   1.6919   1.8484   1.9745

          k = 0.3763-0.1250-0.1273 (306118 PWs)   bands (ev):

   -17.8025 -17.8009 -17.7609 -17.7536 -17.7511 -17.7462 -17.7410 -17.7401
   -14.3435 -14.3310 -14.3301 -14.3287 -14.3259 -14.3193 -14.3141 -14.3135
   -14.3114 -14.3101 -14.3066 -14.3062 -14.3042 -14.2971 -14.2963 -14.2951
   -14.2950 -14.2937 -14.2926 -14.2915 -14.2833 -14.2821 -14.2808 -14.2784
   -14.2773 -14.2748 -14.2727 -14.2697 -14.2688 -14.2676 -14.2661 -14.2655
   -14.2630 -14.2617 -14.2600 -14.2593 -14.2573 -14.2568 -14.2505 -14.2494
   -10.8249 -10.8134 -10.7874 -10.7862 -10.7829 -10.7795 -10.7766 -10.7708
    -9.7942  -9.7085  -9.6178  -9.5994  -9.5453  -9.5378  -9.4508  -9.3943
    -9.3534  -9.3436  -9.3350  -9.3252  -9.3177  -9.3050  -9.2942  -9.2681
    -9.2469  -9.2034  -9.1925  -9.1742  -9.1426  -9.1363  -9.1098  -9.0830
    -7.3094  -7.3003  -7.2683  -7.2672  -7.2512  -7.2412  -7.2331  -7.2219
    -7.1085  -7.0998  -7.0959  -7.0858  -7.0785  -7.0678  -7.0629  -7.0604
    -5.9168  -5.7323  -5.4973  -5.3555  -5.3199  -5.2057  -5.1889  -5.1749
    -5.1517  -5.1443  -5.1362  -5.1311  -5.1227  -5.1171  -4.9313  -4.7545
    -3.0560  -3.0325  -3.0291  -3.0250  -3.0187  -3.0159  -3.0110  -3.0025
    -2.9832  -2.9749  -2.9696  -2.9630  -2.9560  -2.9518  -2.9423  -2.9389
    -1.0908  -1.0515  -1.0410  -0.9788  -0.9426  -0.9179  -0.9004  -0.7947
    -0.5172  -0.4352  -0.3884  -0.3201  -0.0245   0.0489   0.1172   0.1627
     0.1683   0.1948   0.2331   0.2459   0.2637   0.2915   0.2961   0.3320
     0.3852   0.4687   0.5834   0.6301   0.6530   0.6583   0.7300   0.8155
     0.8273   0.8342   0.8494   0.8554   0.8739   0.8773   0.9012   0.9077
     0.9168   0.9309   0.9398   0.9588   1.0095   1.0525   1.1090   1.1270
     1.1379   1.1477   1.1627   1.1686   1.1777   1.1867   1.2162   1.2553
     1.2688   1.2728   1.3132   1.3419   1.3602   1.3750   1.4222   1.4318
     1.4869   1.5073   1.5386   1.5560   1.6482   1.6916   1.8558   1.9763

          k =-0.3763-0.1250 0.3818 (306060 PWs)   bands (ev):

   -17.8025 -17.8009 -17.7609 -17.7536 -17.7511 -17.7462 -17.7409 -17.7402
   -14.3398 -14.3344 -14.3295 -14.3290 -14.3230 -14.3175 -14.3158 -14.3136
   -14.3113 -14.3099 -14.3078 -14.3059 -14.3038 -14.3003 -14.2963 -14.2952
   -14.2951 -14.2939 -14.2925 -14.2915 -14.2832 -14.2821 -14.2808 -14.2784
   -14.2773 -14.2748 -14.2727 -14.2696 -14.2688 -14.2676 -14.2662 -14.2655
   -14.2630 -14.2617 -14.2600 -14.2593 -14.2574 -14.2568 -14.2505 -14.2495
   -10.8247 -10.8128 -10.7870 -10.7858 -10.7816 -10.7802 -10.7767 -10.7731
    -9.7518  -9.6895  -9.6768  -9.6088  -9.5703  -9.5119  -9.5033  -9.4603
    -9.3501  -9.3422  -9.3104  -9.3008  -9.2864  -9.2611  -9.2535  -9.2505
    -9.2247  -9.2133  -9.1855  -9.1784  -9.1592  -9.1397  -9.1355  -9.1163
    -7.3054  -7.2933  -7.2607  -7.2573  -7.2570  -7.2446  -7.2420  -7.2285
    -7.1061  -7.0966  -7.0943  -7.0903  -7.0743  -7.0695  -7.0678  -7.0619
    -5.7752  -5.5861  -5.5461  -5.3607  -5.3566  -5.2227  -5.1908  -5.1818
    -5.1585  -5.1502  -5.1348  -5.1310  -5.1260  -5.1143  -5.0905  -4.9402
    -3.0547  -3.0286  -3.0256  -3.0221  -3.0201  -3.0188  -3.0129  -3.0029
    -2.9819  -2.9766  -2.9696  -2.9622  -2.9537  -2.9504  -2.9442  -2.9401
    -0.9513  -0.9250  -0.8907  -0.8646  -0.6714  -0.6044  -0.5879  -0.4912
    -0.4806  -0.4723  -0.4515  -0.4166  -0.0044   0.0542   0.0703   0.0794
     0.1244   0.1342   0.1602   0.1768   0.2459   0.2479   0.2659   0.3233
     0.3737   0.4253   0.4322   0.4741   0.5798   0.6136   0.6551   0.6826
     0.7013   0.7108   0.7810   0.7961   0.8080   0.8140   0.8746   0.8878
     0.9215   0.9661   0.9890   1.0029   1.0247   1.0920   1.1103   1.1149
     1.1237   1.1360   1.1513   1.2097   1.2217   1.2450   1.2611   1.2715
     1.2758   1.2817   1.2903   1.2992   1.3149   1.3527   1.3635   1.3902
     1.4019   1.4131   1.4233   1.4869   1.5643   1.5744   1.5963   1.6341

          k =-0.3763 0.1250-0.3818 (306060 PWs)   bands (ev):

   -17.8025 -17.8009 -17.7609 -17.7536 -17.7511 -17.7462 -17.7409 -17.7402
   -14.3398 -14.3344 -14.3295 -14.3290 -14.3230 -14.3175 -14.3158 -14.3136
   -14.3112 -14.3099 -14.3078 -14.3059 -14.3038 -14.3003 -14.2964 -14.2952
   -14.2951 -14.2939 -14.2925 -14.2915 -14.2832 -14.2821 -14.2808 -14.2784
   -14.2773 -14.2748 -14.2727 -14.2696 -14.2688 -14.2676 -14.2662 -14.2655
   -14.2630 -14.2617 -14.2600 -14.2593 -14.2574 -14.2568 -14.2505 -14.2495
   -10.8248 -10.8131 -10.7870 -10.7861 -10.7823 -10.7801 -10.7775 -10.7710
    -9.7569  -9.6880  -9.6705  -9.6127  -9.5692  -9.5123  -9.5024  -9.4526
    -9.3566  -9.3480  -9.3172  -9.3084  -9.2762  -9.2599  -9.2548  -9.2417
    -9.2190  -9.2092  -9.1935  -9.1790  -9.1629  -9.1391  -9.1366  -9.1137
    -7.3053  -7.2933  -7.2606  -7.2573  -7.2570  -7.2442  -7.2425  -7.2285
    -7.1062  -7.0966  -7.0943  -7.0902  -7.0742  -7.0695  -7.0679  -7.0619
    -5.7705  -5.5921  -5.5398  -5.3683  -5.3625  -5.2154  -5.2062  -5.1774
    -5.1618  -5.1481  -5.1374  -5.1344  -5.1177  -5.1076  -5.0864  -4.9386
    -3.0547  -3.0296  -3.0250  -3.0223  -3.0205  -3.0184  -3.0132  -3.0028
    -2.9796  -2.9739  -2.9711  -2.9649  -2.9566  -2.9514  -2.9412  -2.9394
    -1.0154  -0.9509  -0.8988  -0.8434  -0.6700  -0.5949  -0.5774  -0.4913
    -0.4468  -0.4069  -0.3964  -0.3499  -0.0270   0.0120   0.0333   0.0482
     0.0866   0.1358   0.1646   0.1731   0.2358   0.2539   0.2656   0.3072
     0.3152   0.4063   0.4684   0.4754   0.6004   0.6218   0.6611   0.6703
     0.6932   0.7062   0.7537   0.7921   0.8033   0.8150   0.8820   0.8988
     0.9393   0.9806   0.9843   1.0254   1.0500   1.0847   1.0965   1.1061
     1.1275   1.1380   1.1481   1.2242   1.2300   1.2381   1.2461   1.2495
     1.2698   1.2825   1.3004   1.3127   1.3227   1.3435   1.3578   1.3837
     1.3962   1.4131   1.4173   1.4396   1.5017   1.5730   1.6953   1.7339

          k = 0.3763-0.1250-0.3818 (306060 PWs)   bands (ev):

   -17.8025 -17.8009 -17.7609 -17.7536 -17.7511 -17.7462 -17.7409 -17.7402
   -14.3398 -14.3344 -14.3295 -14.3290 -14.3230 -14.3175 -14.3158 -14.3136
   -14.3112 -14.3099 -14.3078 -14.3059 -14.3038 -14.3003 -14.2964 -14.2952
   -14.2951 -14.2939 -14.2925 -14.2915 -14.2832 -14.2821 -14.2808 -14.2784
   -14.2773 -14.2748 -14.2727 -14.2696 -14.2688 -14.2676 -14.2662 -14.2655
   -14.2630 -14.2617 -14.2600 -14.2593 -14.2574 -14.2568 -14.2505 -14.2495
   -10.8248 -10.8131 -10.7871 -10.7859 -10.7824 -10.7799 -10.7777 -10.7710
    -9.7556  -9.6891  -9.6741  -9.6088  -9.5664  -9.5143  -9.5054  -9.4512
    -9.3549  -9.3490  -9.3167  -9.3083  -9.2799  -9.2585  -9.2522  -9.2452
    -9.2168  -9.2078  -9.1945  -9.1783  -9.1639  -9.1389  -9.1370  -9.1137
    -7.3054  -7.2933  -7.2605  -7.2574  -7.2570  -7.2442  -7.2425  -7.2286
    -7.1061  -7.0966  -7.0943  -7.0903  -7.0744  -7.0695  -7.0675  -7.0620
    -5.7705  -5.5910  -5.5404  -5.3687  -5.3658  -5.2132  -5.2016  -5.1777
    -5.1608  -5.1485  -5.1373  -5.1342  -5.1179  -5.1092  -5.0905  -4.9372
    -3.0548  -3.0288  -3.0257  -3.0228  -3.0200  -3.0187  -3.0129  -3.0029
    -2.9798  -2.9739  -2.9720  -2.9642  -2.9553  -2.9524  -2.9418  -2.9389
    -1.0149  -0.9518  -0.9067  -0.8401  -0.6685  -0.5911  -0.5734  -0.4902
    -0.4457  -0.4130  -0.3948  -0.3496  -0.0214   0.0146   0.0306   0.0463
     0.0901   0.1247   0.1675   0.1792   0.2264   0.2560   0.2698   0.2984
     0.3265   0.3927   0.4534   0.5050   0.6039   0.6164   0.6457   0.6624
     0.6955   0.7049   0.7552   0.7920   0.8087   0.8281   0.8781   0.9067
     0.9376   0.9765   0.9888   1.0111   1.0373   1.0922   1.0983   1.1197
     1.1287   1.1405   1.1468   1.2122   1.2202   1.2329   1.2545   1.2658
     1.2752   1.2804   1.3027   1.3207   1.3281   1.3351   1.3640   1.3695
     1.3824   1.4063   1.4109   1.4574   1.5027   1.5775   1.6935   1.7363

          k =-0.3763-0.3750 0.1273 (306188 PWs)   bands (ev):

   -17.8025 -17.8009 -17.7609 -17.7536 -17.7511 -17.7462 -17.7410 -17.7401
   -14.3433 -14.3305 -14.3289 -14.3282 -14.3268 -14.3191 -14.3148 -14.3138
   -14.3118 -14.3098 -14.3066 -14.3053 -14.3032 -14.2971 -14.2963 -14.2962
   -14.2952 -14.2950 -14.2926 -14.2915 -14.2833 -14.2821 -14.2808 -14.2784
   -14.2773 -14.2748 -14.2726 -14.2696 -14.2688 -14.2676 -14.2661 -14.2655
   -14.2629 -14.2617 -14.2600 -14.2593 -14.2573 -14.2568 -14.2505 -14.2494
   -10.8249 -10.8129 -10.7879 -10.7860 -10.7814 -10.7804 -10.7749 -10.7736
    -9.7442  -9.6836  -9.6791  -9.6005  -9.5887  -9.5100  -9.5053  -9.4713
    -9.3446  -9.3315  -9.3182  -9.3138  -9.2729  -9.2652  -9.2488  -9.2398
    -9.2319  -9.2237  -9.1986  -9.1723  -9.1594  -9.1424  -9.1202  -9.1122
    -7.3095  -7.3003  -7.2683  -7.2673  -7.2515  -7.2419  -7.2328  -7.2220
    -7.1069  -7.1012  -7.0953  -7.0855  -7.0788  -7.0682  -7.0628  -7.0605
    -5.8095  -5.6269  -5.6142  -5.4599  -5.2747  -5.1949  -5.1790  -5.1569
    -5.1481  -5.1433  -5.1300  -5.1286  -5.1242  -5.0572  -5.0461  -4.8917
    -3.0554  -3.0293  -3.0266  -3.0222  -3.0209  -3.0192  -3.0133  -3.0026
    -2.9786  -2.9705  -2.9673  -2.9592  -2.9559  -2.9525  -2.9507  -2.9451
    -1.0528  -1.0239  -1.0160  -0.9616  -0.6859  -0.6793  -0.5745  -0.5329
    -0.5281  -0.4998  -0.4279  -0.4145   0.0017   0.0456   0.1219   0.1715
     0.1782   0.1861   0.1916   0.1964   0.2066   0.2816   0.3182   0.3427
[...]

          k =-0.3754-0.3753 0.3823 (306099 PWs)   bands (ev):

   -17.8156 -17.8007 -17.7965 -17.7837 -17.7758 -17.7679 -17.7639 -17.7149
   -14.4099 -14.4056 -14.3761 -14.3720 -14.3712 -14.3702 -14.3655 -14.3611
   -14.3580 -14.3567 -14.3564 -14.3502 -14.3456 -14.3376 -14.3328 -14.3323
   -14.3279 -14.3257 -14.3245 -14.3235 -14.3210 -14.3183 -14.3170 -14.3166
   -14.3142 -14.3133 -14.3090 -14.3062 -14.2982 -14.2949 -14.2908 -14.2897
   -14.2879 -14.2849 -14.2812 -14.2780 -14.2707 -14.2550 -14.2506 -14.2451
   -10.8028 -10.7996 -10.7880 -10.7739 -10.7594 -10.7511 -10.7455 -10.6962
    -9.7431  -9.6784  -9.6623  -9.6494  -9.5965  -9.5841  -9.5588  -9.5107
    -9.3718  -9.3369  -9.3075  -9.2991  -9.2898  -9.2707  -9.2603  -9.2416
    -9.2226  -9.2142  -9.2085  -9.1865  -9.1674  -9.1559  -9.1314  -9.0948
    -7.2703  -7.2402  -7.2329  -7.2275  -7.2029  -7.1897  -7.1843  -7.1801
    -7.1775  -7.1647  -7.1568  -7.1487  -7.1319  -7.1144  -7.1068  -7.0625
    -5.6964  -5.5368  -5.4862  -5.4664  -5.3443  -5.3130  -5.2637  -5.1852
    -5.1438  -5.1346  -5.1157  -5.1031  -5.0860  -5.0763  -5.0580  -5.0264
    -3.0939  -3.0760  -3.0541  -3.0389  -3.0277  -3.0246  -3.0168  -3.0104
    -2.9973  -2.9938  -2.9853  -2.9806  -2.9757  -2.9711  -2.9589  -2.9138
    -0.7258  -0.6864  -0.6486  -0.6004  -0.5651  -0.5519  -0.5265  -0.5195
    -0.4995  -0.4667  -0.4442  -0.3614  -0.0319  -0.0020   0.0292   0.0591
     0.0817   0.0944   0.1015   0.1250   0.1413   0.1502   0.1794   0.2046
     0.4518   0.4655   0.4847   0.5094   0.5234   0.5317   0.5639   0.6171
     0.6275   0.6559   0.6797   0.7283   0.7512   0.7745   0.7809   0.8138
     0.8387   0.8668   0.9018   0.9213   0.9312   0.9754   1.0019   1.0584
     1.1468   1.1734   1.1818   1.2017   1.2174   1.2247   1.2488   1.2504
     1.2620   1.2860   1.3071   1.3119   1.3246   1.3439   1.3611   1.3724
     1.3866   1.4048   1.4174   1.4363   1.4534   1.4686   1.4858   1.5007

          k =-0.3754 0.3753-0.3823 (306099 PWs)   bands (ev):

   -17.8156 -17.8007 -17.7965 -17.7837 -17.7758 -17.7679 -17.7639 -17.7149
   -14.4099 -14.4056 -14.3761 -14.3720 -14.3712 -14.3702 -14.3655 -14.3611
   -14.3580 -14.3567 -14.3564 -14.3502 -14.3456 -14.3376 -14.3328 -14.3323
   -14.3279 -14.3257 -14.3245 -14.3235 -14.3210 -14.3183 -14.3170 -14.3166
   -14.3142 -14.3133 -14.3090 -14.3062 -14.2982 -14.2949 -14.2908 -14.2897
   -14.2879 -14.2849 -14.2812 -14.2780 -14.2707 -14.2550 -14.2506 -14.2451
   -10.8029 -10.7996 -10.7885 -10.7734 -10.7592 -10.7526 -10.7441 -10.6961
    -9.7505  -9.6763  -9.6550  -9.6470  -9.5934  -9.5830  -9.5647  -9.5118
    -9.3752  -9.3361  -9.3130  -9.3038  -9.2809  -9.2668  -9.2591  -9.2442
    -9.2283  -9.2184  -9.1988  -9.1817  -9.1674  -9.1622  -9.1313  -9.0933
    -7.2703  -7.2403  -7.2330  -7.2274  -7.2030  -7.1896  -7.1844  -7.1803
    -7.1773  -7.1648  -7.1568  -7.1487  -7.1317  -7.1143  -7.1069  -7.0625
    -5.6925  -5.5222  -5.5119  -5.4623  -5.3338  -5.3110  -5.2937  -5.1583
    -5.1447  -5.1343  -5.1210  -5.0963  -5.0910  -5.0798  -5.0559  -5.0267
    -3.0939  -3.0755  -3.0543  -3.0391  -3.0280  -3.0240  -3.0186  -3.0104
    -2.9987  -2.9942  -2.9848  -2.9780  -2.9769  -2.9703  -2.9589  -2.9136
    -0.8189  -0.7355  -0.6619  -0.6176  -0.5823  -0.5402  -0.4909  -0.4607
    -0.4489  -0.3998  -0.2705  -0.2349  -0.1632  -0.1441  -0.0345  -0.0146
     0.0513   0.0610   0.0716   0.1165   0.1647   0.1928   0.2225   0.2500
     0.3912   0.4251   0.4990   0.5262   0.5493   0.5669   0.5843   0.5997
     0.6535   0.6661   0.6745   0.6977   0.7297   0.7491   0.7850   0.8259
     0.8491   0.8721   0.9072   0.9154   0.9632   0.9994   1.0142   1.0575
     1.1436   1.1630   1.1757   1.2033   1.2191   1.2265   1.2400   1.2541
     1.2759   1.2794   1.2902   1.3112   1.3258   1.3418   1.3526   1.3684
     1.3709   1.3880   1.4071   1.4205   1.4309   1.4625   1.5288   1.5826

          k = 0.3754-0.3753-0.3823 (306099 PWs)   bands (ev):

   -17.8156 -17.8007 -17.7965 -17.7837 -17.7758 -17.7679 -17.7639 -17.7149
   -14.4099 -14.4056 -14.3761 -14.3720 -14.3712 -14.3702 -14.3655 -14.3611
   -14.3580 -14.3567 -14.3564 -14.3502 -14.3456 -14.3376 -14.3328 -14.3323
   -14.3279 -14.3257 -14.3245 -14.3235 -14.3210 -14.3183 -14.3170 -14.3166
   -14.3142 -14.3133 -14.3090 -14.3062 -14.2982 -14.2949 -14.2908 -14.2897
   -14.2879 -14.2849 -14.2812 -14.2780 -14.2707 -14.2550 -14.2506 -14.2451
   -10.8029 -10.7996 -10.7885 -10.7735 -10.7591 -10.7526 -10.7441 -10.6961
    -9.7505  -9.6748  -9.6536  -9.6504  -9.5971  -9.5812  -9.5610  -9.5129
    -9.3765  -9.3290  -9.3160  -9.3056  -9.2863  -9.2685  -9.2575  -9.2399
    -9.2249  -9.2194  -9.2008  -9.1803  -9.1700  -9.1634  -9.1293  -9.0936
    -7.2702  -7.2404  -7.2327  -7.2276  -7.2029  -7.1907  -7.1832  -7.1801
    -7.1776  -7.1651  -7.1569  -7.1483  -7.1318  -7.1143  -7.1068  -7.0625
    -5.6932  -5.5190  -5.5106  -5.4677  -5.3283  -5.3076  -5.3014  -5.1577
    -5.1437  -5.1339  -5.1224  -5.0982  -5.0911  -5.0789  -5.0556  -5.0260
    -3.0952  -3.0760  -3.0531  -3.0394  -3.0284  -3.0239  -3.0169  -3.0096
    -3.0015  -2.9922  -2.9825  -2.9799  -2.9770  -2.9706  -2.9591  -2.9139
    -0.8240  -0.7311  -0.6470  -0.6292  -0.5849  -0.5402  -0.4893  -0.4564
    -0.4355  -0.4174  -0.2755  -0.2363  -0.1784  -0.1367  -0.0253  -0.0148
     0.0473   0.0666   0.0774   0.1215   0.1662   0.1854   0.2218   0.2487
     0.3857   0.4317   0.5067   0.5259   0.5510   0.5592   0.5923   0.6061
     0.6403   0.6539   0.6774   0.6950   0.7248   0.7526   0.7960   0.8228
     0.8483   0.8733   0.9062   0.9273   0.9651   0.9883   1.0112   1.0567
     1.1429   1.1638   1.1760   1.1910   1.2200   1.2332   1.2409   1.2512
     1.2727   1.2775   1.2988   1.3106   1.3373   1.3467   1.3526   1.3678
     1.3772   1.3893   1.3946   1.4167   1.4272   1.4616   1.5332   1.5814

     highest occupied level (ev):     2.0631

!    total energy              =  -16491.10534883 Ry
     Harris-Foulkes estimate   =  -16491.10534883 Ry
     estimated scf accuracy    <          3.2E-09 Ry

     total all-electron energy =   -677247.774613 Ry

     The total energy is the sum of the following terms:

     one-electron contribution =    -858.00330637 Ry
     hartree contribution      =     612.55153540 Ry
     xc contribution           =    -755.68325904 Ry
     ewald contribution        =   -1135.14687215 Ry
     DFT-D3 Dispersion         =      -0.60524614 Ry
     one-center paw contrib.   =  -14354.21820052 Ry

     convergence has been achieved in  10 iterations

     Forces acting on atoms (cartesian axes, Ry/au):

     atom    1 type  1   force =    -0.00003709    0.00004608    0.00068973
     atom    2 type  1   force =    -0.00117254    0.00136189    0.00156008
     atom    3 type  1   force =     0.00074243    0.00083162    0.00163598
     atom    4 type  1   force =     0.00033877   -0.00158351   -0.00021211
     atom    5 type  1   force =     0.00081361   -0.00063023   -0.00109465
     atom    6 type  1   force =     0.00154346    0.00035660    0.00307298
     atom    7 type  1   force =    -0.00138110    0.00129733    0.00164779
     atom    8 type  1   force =     0.00013780    0.00050136   -0.00138853
     atom    9 type  2   force =    -0.00006534    0.00068881   -0.00130703
     atom   10 type  2   force =     0.00042954   -0.00078876   -0.00043723
     atom   11 type  2   force =     0.00172339   -0.00120456    0.00028311
     atom   12 type  2   force =     0.00020365    0.00049887    0.00126139
     atom   13 type  2   force =    -0.00010013    0.00257974   -0.00173676
     atom   14 type  2   force =    -0.00115927    0.00224190    0.00008221
     atom   15 type  2   force =     0.00096393    0.00020000   -0.00131065
     atom   16 type  2   force =    -0.00082360    0.00048518   -0.00209223
     atom   17 type  2   force =    -0.00104182    0.00185538    0.00133682
     atom   18 type  2   force =     0.00252711   -0.00043416   -0.00188197
     atom   19 type  2   force =    -0.00030985   -0.00105081    0.00239308
     atom   20 type  2   force =     0.00157971   -0.00189309   -0.00094786
     atom   21 type  2   force =     0.00133315   -0.00038954    0.00156421
     atom   22 type  2   force =    -0.00158562   -0.00003836   -0.00237994
     atom   23 type  2   force =    -0.00254733    0.00252198   -0.00069895
     atom   24 type  2   force =    -0.00081297    0.00149816   -0.00229675
     atom   25 type  2   force =    -0.00026641   -0.00071766   -0.00007515
     atom   26 type  2   force =     0.00258475   -0.00166517    0.00114238
     atom   27 type  2   force =     0.00068146    0.00057048   -0.00084324
     atom   28 type  2   force =    -0.00113232    0.00114623   -0.00156481
     atom   29 type  2   force =     0.00120409   -0.00154118   -0.00146988
     atom   30 type  2   force =     0.00031485    0.00028456    0.00127264
     atom   31 type  2   force =    -0.00007068    0.00015227   -0.00342869
     atom   32 type  2   force =    -0.00176888    0.00191766    0.00208321
     atom   33 type  3   force =    -0.00090157   -0.00082050   -0.00067709
     atom   34 type  3   force =    -0.00014119    0.00057248    0.00131371
     atom   35 type  3   force =    -0.00051529   -0.00260626    0.00357888
     atom   36 type  3   force =    -0.00183339   -0.00265099    0.00017064
     atom   37 type  3   force =     0.00009791   -0.00116491   -0.00039951
     atom   38 type  3   force =    -0.00085178   -0.00292436    0.00076328
     atom   39 type  3   force =    -0.00017941   -0.00205500    0.00236213
     atom   40 type  3   force =    -0.00145462   -0.00292822    0.00096077
     atom   41 type  4   force =    -0.00088645   -0.00198771   -0.00138055
     atom   42 type  4   force =     0.00245358   -0.00126536   -0.00254470
     atom   43 type  4   force =     0.00151045    0.00378431   -0.00294389
     atom   44 type  4   force =     0.00080553   -0.00061549    0.00111810
     atom   45 type  4   force =    -0.00075171    0.00069071    0.00022768
     atom   46 type  4   force =    -0.00203546    0.00110360   -0.00268484
     atom   47 type  4   force =    -0.00101199   -0.00017500   -0.00120084
     atom   48 type  4   force =     0.00270459    0.00171675   -0.00142169
     atom   49 type  5   force =    -0.00471387    0.00197495   -0.00344916
     atom   50 type  5   force =    -0.00165659    0.00142291   -0.00102201
     atom   51 type  5   force =     0.00356043   -0.00482320    0.00338909
     atom   52 type  5   force =     0.00214300   -0.00099797   -0.00243461
     atom   53 type  5   force =     0.00189960    0.00195946    0.00203678
     atom   54 type  5   force =     0.00025346    0.00348155    0.00293863
     atom   55 type  5   force =     0.00092027   -0.00271510   -0.00017329
     atom   56 type  5   force =    -0.00493586    0.00064379   -0.00042735
     atom   57 type  5   force =    -0.00061230   -0.00404996    0.00212501
     atom   58 type  5   force =    -0.00143988    0.00404811   -0.00213097
     atom   59 type  5   force =     0.00287558   -0.00258997   -0.00035687
     atom   60 type  5   force =    -0.00011182    0.00310031    0.00137656
     atom   61 type  5   force =     0.00425596   -0.00285379   -0.00126714
     atom   62 type  5   force =     0.00002829    0.00282761    0.00253556
     atom   63 type  5   force =    -0.00285501   -0.00016864    0.00475621
     atom   64 type  5   force =     0.00140583   -0.00110005    0.00499720
     atom   65 type  5   force =    -0.00113448   -0.00109923   -0.00624416
     atom   66 type  5   force =    -0.00442752    0.00193019   -0.00107437
     atom   67 type  5   force =    -0.00173125    0.00004984   -0.00212284
     atom   68 type  5   force =    -0.00111641   -0.00006433   -0.00100306
     atom   69 type  5   force =     0.00257102   -0.00352770    0.00000976
     atom   70 type  5   force =     0.00122988   -0.00049120   -0.00139058
     atom   71 type  5   force =    -0.00096184    0.00101764    0.00132766
     atom   72 type  5   force =     0.00161715    0.00219882    0.00099314
     atom   73 type  5   force =     0.00130895   -0.00412202   -0.00372555
     atom   74 type  5   force =    -0.00420506    0.00192089    0.00058922
     atom   75 type  5   force =    -0.00026214   -0.00412747    0.00303369
     atom   76 type  5   force =    -0.00093505    0.00382715   -0.00165349
     atom   77 type  5   force =     0.00382888   -0.00069306    0.00040375
     atom   78 type  5   force =     0.00037870    0.00285991    0.00150405
     atom   79 type  5   force =     0.00165174    0.00235131   -0.00158823
     atom   80 type  5   force =    -0.00151826   -0.00165428    0.00363200
     atom   81 type  5   force =     0.00053738   -0.00043083    0.00159923
     atom   82 type  5   force =    -0.00015432    0.00058775    0.00090902
     atom   83 type  5   force =     0.00071185    0.00150013   -0.00216888
     atom   84 type  5   force =     0.00058304   -0.00097707    0.00046496
     atom   85 type  5   force =     0.00254710    0.00039037   -0.00221667
     atom   86 type  5   force =    -0.00253513   -0.00209639    0.00302028
     atom   87 type  5   force =    -0.00042751    0.00094393    0.00210254
     atom   88 type  5   force =    -0.00146072    0.00106623   -0.00190229
     atom   89 type  5   force =     0.00260653    0.00218016    0.00082687
     atom   90 type  5   force =     0.00144204   -0.00113001   -0.00027901
     atom   91 type  5   force =     0.00066853   -0.00014576    0.00309931
     atom   92 type  5   force =    -0.00193204   -0.00156068   -0.00255971
     atom   93 type  5   force =    -0.00086553   -0.00095964    0.00011869
     atom   94 type  5   force =    -0.00017141    0.00180919    0.00281321
     atom   95 type  5   force =    -0.00003112    0.00051532   -0.00159903
     atom   96 type  5   force =     0.00131396   -0.00000231   -0.00191441

     Total force =     0.032366     Total SCF correction =     0.000215


     Computing stress (Cartesian axis) and pressure

          total   stress  (Ry/bohr**3)                   (kbar)     P=    0.18
  -0.00000168   0.00001216   0.00000074         -0.25      1.79      0.11
   0.00001216  -0.00000355  -0.00000151          1.79     -0.52     -0.22
   0.00000074  -0.00000151   0.00000893          0.11     -0.22      1.31


     number of scf cycles    =  52
     number of bfgs steps    =  50

     enthalpy old            =  -16491.1042002806 Ry
     enthalpy new            =  -16491.1053488255 Ry

     CASE: enthalpy_new < enthalpy_old

     new trust radius        =       0.0726254050 bohr
     new conv_thr            =       0.0000000115 Ry

     new unit-cell volume =  13807.81060 a.u.^3 (  2046.10640 Ang^3 )
     density =      4.03010 g/cm^3

CELL_PARAMETERS (alat= 24.15259000)
   0.998406522   0.000000000   0.000000000
   0.000000000   1.000030146   0.000000000
   0.000000000   0.000000000   0.981551729

ATOMIC_POSITIONS (crystal)
Pb       0.000872159   0.003676981  -0.003424456
Pb       0.003314400   0.003211147   0.496433704
Pb       0.003030472   0.502950513  -0.001920766
Pb       0.001065794   0.506272501   0.498221064
Pb       0.504101542   0.003598883   0.000350742
Pb       0.502604748   0.001930056   0.499997526
Pb       0.505513271   0.502444429   0.001635993
Pb       0.502622971   0.504013296   0.502971163
I        0.255498989   0.013039031  -0.017721158
I        0.040630766   0.258337147   0.019410290
I        0.021914346  -0.013016665   0.247794730
I        0.255036221   0.019336285   0.523254411
I        0.038279317   0.258630862   0.491717647
I       -0.027153444   0.025845319   0.748377517
I        0.255007858   0.541050836   0.006240703
I        0.009385561   0.757162432  -0.016561384
I       -0.012039875   0.516213714   0.247780192
I        0.254359527   0.543219709   0.501854322
I        0.012419638   0.758856056   0.503244708
I        0.011468979   0.490035544   0.749528102
I        0.754288193   0.040213165   0.020585799
I        0.519216567   0.257380071  -0.009856227
I        0.479513582   0.017322079   0.251846150
I        0.755128703   0.030029249   0.485825373
I        0.518864720   0.256272922   0.517880488
I        0.522562178  -0.015871874   0.751370705
I        0.754582513   0.511690902  -0.014246486
I        0.538716506   0.756480611   0.017793984
I        0.504085973   0.495113596   0.253035476
I        0.753685219   0.514714134   0.511672891
I        0.540842318   0.755624316   0.498099069
I        0.491565251   0.513790353   0.751873699
C        0.285387426   0.284899469   0.245870306
C        0.283577435   0.283879417   0.747182148
C        0.285086552   0.786046097   0.244021804
C        0.284846889   0.785764170   0.746235706
C        0.785621147   0.284232275   0.245577927
C        0.784917649   0.286621423   0.743466713
C        0.786013025   0.785664723   0.243896332
C        0.785147608   0.786557597   0.745909073
N        0.200969468   0.205116575   0.257339044
N        0.207061321   0.196684148   0.758837251
N        0.212480505   0.693376850   0.248346811
N        0.207356373   0.698091438   0.757385202
N        0.704969368   0.201222845   0.258983304
N        0.695890056   0.210519229   0.749354189
N        0.696698591   0.710063401   0.251118397
N        0.706212210   0.700285137   0.761761241
H        0.147903392   0.209684870   0.194526232
H        0.158828534   0.214252671   0.328207274
H        0.230353033   0.130181692   0.256822368
H        0.334995185   0.264007271   0.178003810
H        0.331659309   0.287084060   0.319589976
H        0.248183359   0.360340791   0.231116661
H        0.209825766   0.146392117   0.693434402
H        0.131108922   0.223787858   0.765004819
H        0.221980046   0.152323261   0.826786192
H        0.269150532   0.323069109   0.671201440
H        0.363019676   0.251740222   0.748400793
H        0.273013836   0.338258748   0.813527491
H        0.212001748   0.653148713   0.175744420
H        0.135308519   0.713233337   0.263905219
H        0.234882783   0.640306071   0.307435007
H        0.267555146   0.831981978   0.171977211
H        0.365915770   0.756871930   0.243186785
H        0.273318773   0.833018224   0.316026804
H        0.213299009   0.645261721   0.694514389
H        0.131023196   0.725171870   0.760140374
H        0.219369695   0.656868420   0.827888737
H        0.259212944   0.836346361   0.680739649
H        0.362271507   0.751974484   0.728464022
H        0.286163802   0.830037503   0.821096991
H        0.706356357   0.149317119   0.194879484
H        0.630264911   0.231430097   0.263424509
H        0.717226863   0.157639715   0.328271142
H        0.770511255   0.325709708   0.170870237
H        0.862547453   0.246772322   0.242549608
H        0.781211630   0.337652375   0.313598170
H        0.647627556   0.214747686   0.682426424
H        0.648785930   0.224608620   0.815552326
H        0.721803320   0.134390082   0.754751076
H        0.834987500   0.266234924   0.675657037
H        0.829151328   0.281224244   0.817934662
H        0.752855535   0.365359784   0.733761744
H        0.644143640   0.719372592   0.187877191
H        0.654826091   0.721178235   0.321467660
H        0.722070472   0.633553626   0.249693335
H        0.835112218   0.765597398   0.175206362
H        0.831667064   0.779650092   0.317359141
H        0.753976107   0.864761646   0.235053388
H        0.698284117   0.654851423   0.693247884
H        0.633044831   0.730889984   0.780367736
H        0.727578052   0.650920081   0.824634806
H        0.768358542   0.824936965   0.669335032
H        0.864022007   0.751714808   0.745363642
H        0.777108161   0.842136795   0.812307919



     Writing output data file MAPbI_vcrelax_PAW3.save/
     NEW-OLD atomic charge density approx. for the potential
     extrapolated charge  400.34861, renormalised to  400.00000

     total cpu time spent up to now is   602965.7 secs

     Self-consistent Calculation

     iteration #  1     ecut=   120.00 Ry     beta= 0.70
     Davidson diagonalization with overlap
