
     Program PWSCF v.6.4 starts on 18Mar2020 at 19: 0:29 

     This program is part of the open-source Quantum ESPRESSO suite
     for quantum simulation of materials; please cite
         "P. Giannozzi et al., J. Phys.:Condens. Matter 21 395502 (2009);
         "P. Giannozzi et al., J. Phys.:Condens. Matter 29 465901 (2017);
          URL http://www.quantum-espresso.org", 
     in publications or presentations arising from this work. More details at
     http://www.quantum-espresso.org/quote

     Parallel version (MPI), running on    32 processors

     MPI processes distributed on     1 nodes
     K-points division:     npool     =       4
     R & G space division:  proc/nbgrp/npool/nimage =       8
     Waiting for input...
     Reading input from standard input
     Message from routine read_cards :
     DEPRECATED: no units specified in CELL_PARAMETERS card

     Current dimensions of program PWSCF are:
     Max number of different atomic species (ntypx) = 10
     Max number of k-points (npk) =  40000
     Max angular momentum in pseudopotentials (lmaxx) =  3
               file Pb.pbe-dn-kjpaw_psl.1.0.0.UPF: wavefunction(s)  6S 6P 5D renormalized
               file I.pbe-n-kjpaw_psl.1.0.0.UPF: wavefunction(s)  5S renormalized
               file C.pbe-n-kjpaw_psl.1.0.0.UPF: wavefunction(s)  2S 2P renormalized
               file N.pbe-n-kjpaw_psl.1.0.0.UPF: wavefunction(s)  2S renormalized
               file H.pbe-kjpaw_psl.1.0.0.UPF: wavefunction(s)  1S renormalized

     --------------------------------------------
     Parameters for DFT-D3 Dispersion Correction:
     --------------------------------------------
       Reference C6 values for interpolation: 

         atom   Coordination number   C6
         H          0.912             6.05
         H          0.000            15.18
         C          0.000            98.23
         C          0.987            86.49
         C          1.998            58.72
         C          2.999            51.56
         C          3.984            36.41
         N          0.000            50.54
         N          0.994            44.25
         N          2.014            39.35
         N          2.990            31.16
         I          0.000           703.93
         I          0.997           717.00
         Pb         0.000          1477.63
         Pb         0.938          1266.00
         Pb         1.936          1088.91
         Pb         2.908          1048.37
         Pb         3.910           910.57

       Values used:

         atom   Coordination number  R0_AB[au]  C6      C8
         Pb         4.774            4.041    910.57 144158.48
         Pb         4.782            4.041    910.57 144158.46
         Pb         4.811            4.041    910.57 144158.39
         Pb         4.828            4.041    910.57 144158.35
         Pb         4.823            4.041    910.57 144158.36
         Pb         4.825            4.041    910.57 144158.36
         Pb         4.875            4.041    910.57 144158.28
         Pb         4.878            4.041    910.57 144158.27
         I          1.936            3.532    717.00  65855.99
         I          1.938            3.532    717.00  65855.99
         I          1.943            3.532    717.00  65855.99
         I          1.939            3.532    717.00  65855.99
         I          1.935            3.532    717.00  65855.99
         I          1.960            3.532    717.00  65856.00
         I          1.902            3.532    717.00  65855.99
         I          1.927            3.532    717.00  65855.99
         I          1.959            3.532    717.00  65856.00
         I          1.926            3.532    717.00  65855.99
         I          1.939            3.532    717.00  65855.99
         I          1.987            3.532    717.00  65856.00
         I          1.927            3.532    717.00  65855.99
         I          1.990            3.532    717.00  65856.00
         I          1.979            3.532    717.00  65856.00
         I          1.937            3.532    717.00  65855.99
         I          2.002            3.532    717.00  65856.00
         I          1.955            3.532    717.00  65856.00
         I          1.981            3.532    717.00  65856.00
         I          1.990            3.532    717.00  65856.00
         I          2.002            3.532    717.00  65856.00
         I          1.976            3.532    717.00  65856.00
         I          1.994            3.532    717.00  65856.00
         I          2.026            3.532    717.00  65856.00
         C          4.041            2.750     36.59   1058.15
         C          4.043            2.750     36.58   1058.05
         C          4.045            2.750     36.58   1058.01
         C          4.037            2.750     36.59   1058.30
         C          4.043            2.750     36.58   1058.07
         C          4.048            2.750     36.58   1057.87
         C          4.046            2.750     36.58   1057.95
         C          4.049            2.750     36.58   1057.85
         N          4.062            2.478     31.16    687.49
         N          4.060            2.478     31.16    687.49
         N          4.059            2.478     31.16    687.49
         N          4.066            2.478     31.16    687.49
         N          4.061            2.478     31.16    687.49
         N          4.060            2.478     31.16    687.49
         N          4.061            2.478     31.16    687.49
         N          4.061            2.478     31.16    687.49
         H          1.081            2.062      6.12     74.03
         H          1.076            2.062      6.13     74.07
         H          1.043            2.062      6.15     74.31
         H          1.008            2.062      6.17     74.63
         H          1.008            2.062      6.17     74.63
         H          1.007            2.062      6.17     74.64
         H          1.089            2.062      6.12     73.98
         H          1.032            2.062      6.15     74.40
         H          1.079            2.062      6.13     74.05
         H          1.009            2.062      6.17     74.63
         H          1.011            2.062      6.17     74.60
         H          1.008            2.062      6.17     74.63
         H          1.074            2.062      6.13     74.08
         H          1.045            2.062      6.15     74.29
         H          1.063            2.062      6.13     74.16
         H          1.009            2.062      6.17     74.62
         H          1.011            2.062      6.17     74.61
         H          1.009            2.062      6.17     74.62
         H          1.029            2.062      6.16     74.43
         H          1.039            2.062      6.15     74.34
         H          1.035            2.062      6.15     74.37
         H          1.013            2.062      6.17     74.59
         H          1.015            2.062      6.17     74.56
         H          1.013            2.062      6.17     74.58
         H          1.081            2.062      6.12     74.03
         H          1.044            2.062      6.15     74.30
         H          1.075            2.062      6.13     74.08
         H          1.009            2.062      6.17     74.62
         H          1.011            2.062      6.17     74.60
         H          1.008            2.062      6.17     74.63
         H          1.091            2.062      6.12     73.98
         H          1.078            2.062      6.13     74.05
         H          1.030            2.062      6.16     74.42
         H          1.009            2.062      6.17     74.62
         H          1.009            2.062      6.17     74.62
         H          1.010            2.062      6.17     74.61
         H          1.089            2.062      6.12     73.99
         H          1.075            2.062      6.13     74.08
         H          1.035            2.062      6.15     74.37
         H          1.009            2.062      6.17     74.63
         H          1.009            2.062      6.17     74.62
         H          1.010            2.062      6.17     74.62
         H          1.079            2.062      6.13     74.05
         H          1.031            2.062      6.16     74.41
         H          1.067            2.062      6.13     74.12
         H          1.009            2.062      6.17     74.62
         H          1.015            2.062      6.17     74.56
         H          1.009            2.062      6.17     74.62

         Molecular C6 ( Ry / a.u.^6 ) =   1196371.55


     Subspace diagonalization in iterative solution of the eigenvalue problem:
     a serial algorithm will be used


     Parallelization info
     --------------------
     sticks:   dense  smooth     PW     G-vecs:    dense   smooth      PW
     Min        2757    2757    711               299763   299763   39247
     Max        2758    2758    713               299766   299766   39248
     Sum       22063   22063   5693              2398117  2398117  313979



     bravais-lattice index     =            0
     lattice parameter (alat)  =      24.1526  a.u.
     unit-cell volume          =   13502.8304 (a.u.)^3
     number of atoms/cell      =           96
     number of atomic types    =            5
     number of electrons       =       400.00
     number of Kohn-Sham states=          200
     kinetic-energy cutoff     =     120.0000  Ry
     charge density cutoff     =     480.0000  Ry
     convergence threshold     =      1.0E-07
     mixing beta               =       0.7000
     number of iterations used =            8  plain     mixing
     Exchange-correlation      = SLA PW PBX PBC ( 1  4  3  4 0 0)
     nstep                     =          150


     celldm(1)=  24.152590  celldm(2)=   0.000000  celldm(3)=   0.000000
     celldm(4)=   0.000000  celldm(5)=   0.000000  celldm(6)=   0.000000

     crystal axes: (cart. coord. in units of alat)
               a(1) = (   1.000350   0.000000   0.000000 )  
               a(2) = (   0.000000   0.989509   0.000000 )  
               a(3) = (   0.000000   0.000000   0.968193 )  

     reciprocal axes: (cart. coord. in units 2 pi/alat)
               b(1) = (  0.999650  0.000000  0.000000 )  
               b(2) = (  0.000000  1.010603  0.000000 )  
               b(3) = (  0.000000  0.000000  1.032852 )  


     PseudoPot. # 1 for Pb read from file:
     ../Pseudopotential/Pb.pbe-dn-kjpaw_psl.1.0.0.UPF
     MD5 check sum: 684fc8fbce61a260853528575e4d9ab7
     Pseudo is Projector augmented-wave + core cor, Zval = 14.0
     Generated using "atomic" code by A. Dal Corso v.6.3
     Shape of augmentation charge: PSQ
     Using radial grid of 1281 points,  6 beta functions with: 
                l(1) =   0
                l(2) =   0
                l(3) =   1
                l(4) =   1
                l(5) =   2
                l(6) =   2
     Q(r) pseudized with 0 coefficients 


     PseudoPot. # 2 for I  read from file:
     ../Pseudopotential/I.pbe-n-kjpaw_psl.1.0.0.UPF
     MD5 check sum: cd3d296c3308a581e1559a0c8a554cb5
     Pseudo is Projector augmented-wave + core cor, Zval =  7.0
     Generated using "atomic" code by A. Dal Corso v.6.3
     Shape of augmentation charge: PSQ
     Using radial grid of 1247 points,  6 beta functions with: 
                l(1) =   0
                l(2) =   0
                l(3) =   1
                l(4) =   1
                l(5) =   2
                l(6) =   2
     Q(r) pseudized with 0 coefficients 


     PseudoPot. # 3 for C  read from file:
     ../Pseudopotential/C.pbe-n-kjpaw_psl.1.0.0.UPF
     MD5 check sum: 5f16ad9a65e90284d1d834d4ab3b0f7d
     Pseudo is Projector augmented-wave + core cor, Zval =  4.0
     Generated using "atomic" code by A. Dal Corso v.6.3
     Shape of augmentation charge: PSQ
     Using radial grid of 1073 points,  4 beta functions with: 
                l(1) =   0
                l(2) =   0
                l(3) =   1
                l(4) =   1
     Q(r) pseudized with 0 coefficients 


     PseudoPot. # 4 for N  read from file:
     ../Pseudopotential/N.pbe-n-kjpaw_psl.1.0.0.UPF
     MD5 check sum: 14c48229446f9f2d411169a3abcbc3fa
     Pseudo is Projector augmented-wave + core cor, Zval =  5.0
     Generated using "atomic" code by A. Dal Corso v.6.3
     Shape of augmentation charge: PSQ
     Using radial grid of 1085 points,  4 beta functions with: 
                l(1) =   0
                l(2) =   0
                l(3) =   1
                l(4) =   1
     Q(r) pseudized with 0 coefficients 


     PseudoPot. # 5 for H  read from file:
     ../Pseudopotential/H.pbe-kjpaw_psl.1.0.0.UPF
     MD5 check sum: d81a744832360e4a8af0b0b5b123bc2a
     Pseudo is Projector augmented-wave, Zval =  1.0
     Generated using "atomic" code by A. Dal Corso v.6.3MaX
     Shape of augmentation charge: PSQ
     Using radial grid of  929 points,  2 beta functions with: 
                l(1) =   0
                l(2) =   0
     Q(r) pseudized with 0 coefficients 


     atomic species   valence    mass     pseudopotential
        Pb            14.00   207.97600     Pb( 1.00)
        I              7.00   126.90400     I ( 1.00)
        C              4.00    12.00000     C ( 1.00)
        N              5.00    14.00300     N ( 1.00)
        H              1.00     1.00700     H ( 1.00)

     No symmetry found



   Cartesian axes

     site n.     atom                  positions (alat units)
         1           Pb  tau(   1) = (   0.0003728   0.0006181  -0.0004104  )
         2           Pb  tau(   2) = (  -0.0007443   0.0012532   0.4851688  )
         3           Pb  tau(   3) = (   0.0016111   0.4978924   0.0001406  )
         4           Pb  tau(   4) = (   0.0008271   0.4993575   0.4861435  )
         5           Pb  tau(   5) = (   0.5021970   0.0011502   0.0014655  )
         6           Pb  tau(   6) = (   0.5006352   0.0009780   0.4854059  )
         7           Pb  tau(   7) = (   0.5041349   0.4964725   0.0022912  )
         8           Pb  tau(   8) = (   0.5037147   0.4971199   0.4855766  )
         9           I   tau(   9) = (   0.2510864   0.0131641  -0.0327476  )
        10           I   tau(  10) = (   0.0268906   0.2495211   0.0406905  )
        11           I   tau(  11) = (   0.0430304  -0.0476225   0.2419533  )
        12           I   tau(  12) = (   0.2503286   0.0252886   0.5165192  )
        13           I   tau(  13) = (   0.0160047   0.2510315   0.4426109  )
        14           I   tau(  14) = (  -0.0475980   0.0489418   0.7264165  )
        15           I   tau(  15) = (   0.2536853   0.5294027   0.0280618  )
        16           I   tau(  16) = (   0.0090844   0.7439892  -0.0508292  )
        17           I   tau(  17) = (  -0.0372528   0.5440677   0.2427630  )
        18           I   tau(  18) = (   0.2525343   0.5183375   0.4594930  )
        19           I   tau(  19) = (   0.0236139   0.7460273   0.5295458  )
        20           I   tau(  20) = (   0.0365087   0.4430875   0.7271248  )
        21           I   tau(  21) = (   0.7508045   0.0309242   0.0355183  )
        22           I   tau(  22) = (   0.5081485   0.2493257  -0.0399383  )
        23           I   tau(  23) = (   0.4575375   0.0487845   0.2429219  )
        24           I   tau(  24) = (   0.7499885   0.0197771   0.4481403  )
        25           I   tau(  25) = (   0.5196562   0.2498218   0.5220631  )
        26           I   tau(  26) = (   0.5399335  -0.0481690   0.7272787  )
        27           I   tau(  27) = (   0.7532554   0.5063636  -0.0313121  )
        28           I   tau(  28) = (   0.5313183   0.7440360   0.0397136  )
        29           I   tau(  29) = (   0.5413725   0.4509174   0.2436983  )
        30           I   tau(  30) = (   0.7529726   0.5198651   0.5171878  )
        31           I   tau(  31) = (   0.5186024   0.7444062   0.4435361  )
        32           I   tau(  32) = (   0.4680979   0.5348627   0.7279764  )
        33           C   tau(  33) = (   0.2851673   0.2872732   0.2418959  )
        34           C   tau(  34) = (   0.2808212   0.2864131   0.7245993  )
        35           C   tau(  35) = (   0.2894367   0.7833618   0.2416641  )
        36           C   tau(  36) = (   0.2787266   0.7679969   0.7202374  )
        37           C   tau(  37) = (   0.7877576   0.2888428   0.2410473  )
        38           C   tau(  38) = (   0.7836700   0.2837419   0.7237580  )
        39           C   tau(  39) = (   0.7920669   0.7804497   0.2410181  )
        40           C   tau(  40) = (   0.7829428   0.7835856   0.7210825  )
        41           N   tau(  41) = (   0.2129700   0.1955972   0.2455316  )
        42           N   tau(  42) = (   0.1995074   0.2027083   0.7299450  )
        43           N   tau(  43) = (   0.2023012   0.7058158   0.2461574  )
        44           N   tau(  44) = (   0.2178561   0.6687860   0.7308658  )
        45           N   tau(  45) = (   0.6988441   0.2132137   0.2454408  )
        46           N   tau(  46) = (   0.7037215   0.1987987   0.7287826  )
        47           N   tau(  47) = (   0.7159706   0.6919654   0.2452723  )
        48           N   tau(  48) = (   0.7022077   0.6999104   0.7311662  )
        49           H   tau(  49) = (   0.1647648   0.1942753   0.1796719  )
        50           H   tau(  50) = (   0.1636011   0.1998091   0.3104110  )
        51           H   tau(  51) = (   0.2552941   0.1264258   0.2488283  )
        52           H   tau(  52) = (   0.3345690   0.2807787   0.1723425  )
        53           H   tau(  53) = (   0.3340803   0.2867751   0.3120952  )
        54           H   tau(  54) = (   0.2389862   0.3592101   0.2386384  )
        55           H   tau(  55) = (   0.2039043   0.1534058   0.6649509  )
        56           H   tau(  56) = (   0.1250178   0.2343645   0.7325980  )
        57           H   tau(  57) = (   0.2092233   0.1552192   0.7956512  )
        58           H   tau(  58) = (   0.2673207   0.3331329   0.6541010  )
        59           H   tau(  59) = (   0.3580391   0.2496316   0.7217272  )
        60           H   tau(  60) = (   0.2740059   0.3358732   0.7941356  )
        61           H   tau(  61) = (   0.2041427   0.6564671   0.1811844  )
        62           H   tau(  62) = (   0.1307934   0.7443657   0.2476910  )
        63           H   tau(  63) = (   0.2078703   0.6585667   0.3123048  )
        64           H   tau(  64) = (   0.2795857   0.8317848   0.1718881  )
        65           H   tau(  65) = (   0.3640658   0.7418226   0.2384772  )
        66           H   tau(  66) = (   0.2862685   0.8326548   0.3114582  )
        67           H   tau(  67) = (   0.2201872   0.6252097   0.6625752  )
        68           H   tau(  68) = (   0.1400875   0.6842577   0.7480742  )
        69           H   tau(  69) = (   0.2467893   0.6223984   0.7908865  )
        70           H   tau(  70) = (   0.2458538   0.8137321   0.6558198  )
        71           H   tau(  71) = (   0.3603853   0.7483333   0.7041509  )
        72           H   tau(  72) = (   0.2727462   0.8121170   0.7933010  )
        73           H   tau(  73) = (   0.6992606   0.1642833   0.1800660  )
        74           H   tau(  74) = (   0.6279806   0.2526557   0.2480846  )
        75           H   tau(  75) = (   0.7042765   0.1646552   0.3108195  )
        76           H   tau(  76) = (   0.7795818   0.3370415   0.1707936  )
        77           H   tau(  77) = (   0.8613684   0.2453568   0.2385769  )
        78           H   tau(  78) = (   0.7853610   0.3385623   0.3106545  )
        79           H   tau(  79) = (   0.6541886   0.2019320   0.6638625  )
        80           H   tau(  80) = (   0.6561067   0.2064541   0.7946743  )
        81           H   tau(  81) = (   0.7392686   0.1261033   0.7308969  )
        82           H   tau(  82) = (   0.8309735   0.2728248   0.6533037  )
        83           H   tau(  83) = (   0.8335655   0.2791585   0.7930647  )
        84           H   tau(  84) = (   0.7438766   0.3593574   0.7211314  )
        85           H   tau(  85) = (   0.6672616   0.6927018   0.1797567  )
        86           H   tau(  86) = (   0.6671791   0.6976440   0.3104326  )
        87           H   tau(  87) = (   0.7550178   0.6210683   0.2481119  )
        88           H   tau(  88) = (   0.8398642   0.7719814   0.1705117  )
        89           H   tau(  89) = (   0.8419254   0.7775784   0.3104806  )
        90           H   tau(  90) = (   0.7487876   0.8541794   0.2387747  )
        91           H   tau(  91) = (   0.7042962   0.6495812   0.6669905  )
        92           H   tau(  92) = (   0.6279942   0.7317877   0.7360037  )
        93           H   tau(  93) = (   0.7141926   0.6536705   0.7972908  )
        94           H   tau(  94) = (   0.7663469   0.8293232   0.6506782  )
        95           H   tau(  95) = (   0.8600130   0.7471262   0.7152794  )
        96           H   tau(  96) = (   0.7791704   0.8341329   0.7899269  )

     number of k points=    32
                       cart. coord. in units 2pi/alat
        k(    1) = (   0.1249562   0.1263253   0.1291065), wk =   0.0625000
        k(    2) = (   0.1249562   0.1263253   0.3873195), wk =   0.0625000
        k(    3) = (   0.1249562   0.3789759   0.1291065), wk =   0.0625000
        k(    4) = (   0.1249562   0.3789759   0.3873195), wk =   0.0625000
        k(    5) = (   0.3748686   0.1263253   0.1291065), wk =   0.0625000
        k(    6) = (   0.3748686   0.1263253   0.3873195), wk =   0.0625000
        k(    7) = (   0.3748686   0.3789759   0.1291065), wk =   0.0625000
        k(    8) = (   0.3748686   0.3789759   0.3873195), wk =   0.0625000
        k(    9) = (  -0.1249562  -0.1263253   0.1291065), wk =   0.0625000
        k(   10) = (  -0.1249562   0.1263253  -0.1291065), wk =   0.0625000
        k(   11) = (   0.1249562  -0.1263253  -0.1291065), wk =   0.0625000
        k(   12) = (  -0.1249562  -0.1263253   0.3873195), wk =   0.0625000
        k(   13) = (  -0.1249562   0.1263253  -0.3873195), wk =   0.0625000
        k(   14) = (   0.1249562  -0.1263253  -0.3873195), wk =   0.0625000
        k(   15) = (  -0.1249562  -0.3789759   0.1291065), wk =   0.0625000
        k(   16) = (  -0.1249562   0.3789759  -0.1291065), wk =   0.0625000
        k(   17) = (   0.1249562  -0.3789759  -0.1291065), wk =   0.0625000
        k(   18) = (  -0.1249562  -0.3789759   0.3873195), wk =   0.0625000
        k(   19) = (  -0.1249562   0.3789759  -0.3873195), wk =   0.0625000
        k(   20) = (   0.1249562  -0.3789759  -0.3873195), wk =   0.0625000
        k(   21) = (  -0.3748686  -0.1263253   0.1291065), wk =   0.0625000
        k(   22) = (  -0.3748686   0.1263253  -0.1291065), wk =   0.0625000
        k(   23) = (   0.3748686  -0.1263253  -0.1291065), wk =   0.0625000
        k(   24) = (  -0.3748686  -0.1263253   0.3873195), wk =   0.0625000
        k(   25) = (  -0.3748686   0.1263253  -0.3873195), wk =   0.0625000
        k(   26) = (   0.3748686  -0.1263253  -0.3873195), wk =   0.0625000
        k(   27) = (  -0.3748686  -0.3789759   0.1291065), wk =   0.0625000
        k(   28) = (  -0.3748686   0.3789759  -0.1291065), wk =   0.0625000
        k(   29) = (   0.3748686  -0.3789759  -0.1291065), wk =   0.0625000
        k(   30) = (  -0.3748686  -0.3789759   0.3873195), wk =   0.0625000
        k(   31) = (  -0.3748686   0.3789759  -0.3873195), wk =   0.0625000
        k(   32) = (   0.3748686  -0.3789759  -0.3873195), wk =   0.0625000

     Dense  grid:  2398117 G-vectors     FFT dimensions: ( 180, 180, 180)

     Estimated max dynamical RAM per process >       3.10 GB

     Estimated total dynamical RAM >      99.07 GB

     Initial potential from superposition of free atoms

     starting charge  399.97850, renormalised to  400.00000
     Starting wfcs are  280 randomized atomic wfcs
     Checking if some PAW data can be deallocated... 

     total cpu time spent up to now is     1267.9 secs

     Self-consistent Calculation

     iteration #  1     ecut=   120.00 Ry     beta= 0.70
     Davidson diagonalization with overlap
     ethr =  1.00E-02,  avg # of iterations =  2.0

     total cpu time spent up to now is     3544.7 secs

     total energy              =  -16489.36233662 Ry
     Harris-Foulkes estimate   =  -16492.77588516 Ry
     estimated scf accuracy    <       5.72205601 Ry

     iteration #  2     ecut=   120.00 Ry     beta= 0.70
     Davidson diagonalization with overlap
     ethr =  1.43E-03,  avg # of iterations =  3.0

     total cpu time spent up to now is     6685.5 secs

     total energy              =  -16490.60588228 Ry
     Harris-Foulkes estimate   =  -16491.84291551 Ry
     estimated scf accuracy    <       2.19823616 Ry

     iteration #  3     ecut=   120.00 Ry     beta= 0.70
     Davidson diagonalization with overlap
     ethr =  5.50E-04,  avg # of iterations =  3.0

     total cpu time spent up to now is    10502.3 secs

     total energy              =  -16491.12597692 Ry
     Harris-Foulkes estimate   =  -16491.16971960 Ry
     estimated scf accuracy    <       0.10105532 Ry

     iteration #  4     ecut=   120.00 Ry     beta= 0.70
     Davidson diagonalization with overlap
     ethr =  2.53E-05,  avg # of iterations =  3.0

     total cpu time spent up to now is    14421.3 secs

     total energy              =  -16491.15037250 Ry
     Harris-Foulkes estimate   =  -16491.16049672 Ry
     estimated scf accuracy    <       0.01855079 Ry

     iteration #  5     ecut=   120.00 Ry     beta= 0.70
     Davidson diagonalization with overlap
     ethr =  4.64E-06,  avg # of iterations =  2.2

     total cpu time spent up to now is    18555.6 secs

     total energy              =  -16491.15419834 Ry
     Harris-Foulkes estimate   =  -16491.15502810 Ry
     estimated scf accuracy    <       0.00147302 Ry

     iteration #  6     ecut=   120.00 Ry     beta= 0.70
     Davidson diagonalization with overlap
     ethr =  3.68E-07,  avg # of iterations =  3.0

     total cpu time spent up to now is    23079.2 secs

     total energy              =  -16491.15460830 Ry
     Harris-Foulkes estimate   =  -16491.15507110 Ry
     estimated scf accuracy    <       0.00109494 Ry

     iteration #  7     ecut=   120.00 Ry     beta= 0.70
     Davidson diagonalization with overlap
     ethr =  2.74E-07,  avg # of iterations =  2.3

     total cpu time spent up to now is    26451.8 secs

     total energy              =  -16491.15483136 Ry
     Harris-Foulkes estimate   =  -16491.15484589 Ry
     estimated scf accuracy    <       0.00003937 Ry

     iteration #  8     ecut=   120.00 Ry     beta= 0.70
     Davidson diagonalization with overlap
     ethr =  9.84E-09,  avg # of iterations =  3.0

     total cpu time spent up to now is    30824.6 secs

     total energy              =  -16491.15484474 Ry
     Harris-Foulkes estimate   =  -16491.15484837 Ry
     estimated scf accuracy    <       0.00000834 Ry

     iteration #  9     ecut=   120.00 Ry     beta= 0.70
     Davidson diagonalization with overlap
     ethr =  2.08E-09,  avg # of iterations =  3.0

     total cpu time spent up to now is    34682.7 secs

     total energy              =  -16491.15484658 Ry
     Harris-Foulkes estimate   =  -16491.15484726 Ry
     estimated scf accuracy    <       0.00000140 Ry

     iteration # 10     ecut=   120.00 Ry     beta= 0.70
     Davidson diagonalization with overlap
     ethr =  3.50E-10,  avg # of iterations =  3.4

     total cpu time spent up to now is    37991.3 secs

     total energy              =  -16491.15484695 Ry
     Harris-Foulkes estimate   =  -16491.15484707 Ry
     estimated scf accuracy    <       0.00000026 Ry

     iteration # 11     ecut=   120.00 Ry     beta= 0.70
     Davidson diagonalization with overlap
     ethr =  6.40E-11,  avg # of iterations =  3.0

     total cpu time spent up to now is    41269.7 secs

     End of self-consistent calculation

          k = 0.1250 0.1263 0.1291 (299727 PWs)   bands (ev):

   -17.5433 -17.4753 -17.4529 -17.4285 -17.4209 -17.4126 -17.4110 -17.3992
   -14.2984 -14.2931 -14.2919 -14.2856 -14.2801 -14.2737 -14.2685 -14.2674
   -14.2668 -14.2665 -14.2594 -14.2581 -14.2566 -14.2565 -14.2558 -14.2545
   -14.2538 -14.2537 -14.2472 -14.2464 -14.2442 -14.2429 -14.2417 -14.2364
   -14.2340 -14.2333 -14.2330 -14.2326 -14.2312 -14.2291 -14.2280 -14.2269
   -14.2231 -14.2229 -14.2224 -14.2218 -14.2152 -14.2110 -14.2095 -14.2002
   -10.4774 -10.4654 -10.4586 -10.4517 -10.4502 -10.4337 -10.4312 -10.4181
    -9.6918  -9.5257  -9.5051  -9.5021  -9.3590  -9.3429  -9.3251  -9.3021
    -9.2772  -9.2619  -9.2463  -9.2422  -9.2156  -9.2060  -9.1991  -9.1676
    -9.1602  -9.1409  -9.1086  -9.0806  -9.0347  -9.0077  -9.0005  -8.9672
    -6.9894  -6.9667  -6.9506  -6.9402  -6.9371  -6.9344  -6.9288  -6.9121
    -6.8961  -6.8620  -6.8101  -6.7816  -6.7792  -6.7771  -6.7565  -6.7511
    -5.8930  -5.4720  -5.4463  -5.4384  -5.0550  -5.0308  -5.0068  -4.8451
    -4.8395  -4.8181  -4.8106  -4.8073  -4.7952  -4.7903  -4.7816  -4.5722
    -2.8001  -2.7705  -2.7666  -2.7606  -2.7525  -2.7430  -2.7392  -2.7309
    -2.7225  -2.7194  -2.7099  -2.7087  -2.7020  -2.6974  -2.6882  -2.6761
    -0.8906  -0.8454  -0.8312  -0.8000  -0.7599  -0.7331  -0.7190  -0.7102
    -0.6621  -0.6083  -0.5613  -0.5256   0.2198   0.2930   0.3019   0.3202
     0.4091   0.4228   0.4424   0.4731   0.4919   0.5636   0.5747   0.5845
     0.6056   0.7207   0.7387   0.7784   0.8027   0.8271   0.8760   0.9178
     0.9254   0.9462   0.9578   0.9725   0.9859   1.0047   1.0176   1.0330
     1.0427   1.0754   1.1055   1.1127   1.1289   1.1510   1.1725   1.1859
     1.2085   1.2178   1.2297   1.2390   1.2495   1.2652   1.2817   1.3033
     1.3222   1.3455   1.3632   1.4167   1.4588   1.4815   1.4958   1.5695
     1.6032   1.6258   1.6561   1.6751   1.7164   1.7940   1.8497   2.0513

          k = 0.1250 0.1263 0.3873 (299734 PWs)   bands (ev):

   -17.5433 -17.4753 -17.4529 -17.4285 -17.4209 -17.4126 -17.4111 -17.3992
   -14.2957 -14.2936 -14.2912 -14.2884 -14.2794 -14.2722 -14.2697 -14.2667
   -14.2666 -14.2645 -14.2606 -14.2599 -14.2565 -14.2565 -14.2562 -14.2545
   -14.2538 -14.2527 -14.2472 -14.2465 -14.2442 -14.2435 -14.2417 -14.2372
   -14.2340 -14.2333 -14.2330 -14.2326 -14.2312 -14.2291 -14.2280 -14.2269
   -14.2230 -14.2229 -14.2224 -14.2218 -14.2152 -14.2110 -14.2095 -14.2002
   -10.4740 -10.4686 -10.4564 -10.4532 -10.4492 -10.4353 -10.4308 -10.4187
    -9.6569  -9.5915  -9.4744  -9.4696  -9.4178  -9.4089  -9.3102  -9.2947
    -9.2816  -9.2641  -9.2342  -9.2306  -9.2019  -9.1895  -9.1765  -9.1544
    -9.1356  -9.1145  -9.1094  -9.0844  -9.0585  -9.0347  -9.0012  -8.9760
    -6.9930  -6.9611  -6.9504  -6.9387  -6.9374  -6.9360  -6.9282  -6.9136
    -6.8972  -6.8643  -6.8055  -6.7806  -6.7739  -6.7730  -6.7606  -6.7570
    -5.7708  -5.5833  -5.3555  -5.3310  -5.1740  -5.1507  -4.9644  -4.8661
    -4.8378  -4.8253  -4.8125  -4.8071  -4.7959  -4.7827  -4.7717  -4.6920
    -2.7969  -2.7735  -2.7650  -2.7572  -2.7453  -2.7400  -2.7370  -2.7293
    -2.7254  -2.7185  -2.7132  -2.7087  -2.6997  -2.6957  -2.6933  -2.6842
    -0.8128  -0.7952  -0.7692  -0.7296  -0.6955  -0.6857  -0.6354  -0.6185
    -0.4890  -0.3850  -0.3668  -0.2463   0.0519   0.1353   0.1471   0.2363
     0.3372   0.3502   0.3883   0.4059   0.4354   0.4591   0.4678   0.5095
     0.5185   0.5642   0.7466   0.7567   0.7878   0.8178   0.8718   0.8937
     0.9066   0.9234   0.9509   0.9678   0.9981   1.0197   1.0392   1.0514
     1.0548   1.0803   1.0935   1.1073   1.1193   1.1337   1.1447   1.1706
     1.1906   1.2092   1.2251   1.2389   1.2555   1.2680   1.2786   1.3113
     1.3468   1.3599   1.3844   1.4139   1.4306   1.4589   1.4715   1.5448
     1.5889   1.6182   1.6390   1.6597   1.6644   1.6803   1.7538   1.8540

          k = 0.1250 0.3790 0.1291 (299715 PWs)   bands (ev):

   -17.5433 -17.4753 -17.4529 -17.4285 -17.4209 -17.4126 -17.4110 -17.3992
   -14.2983 -14.2928 -14.2913 -14.2851 -14.2800 -14.2731 -14.2682 -14.2678
   -14.2673 -14.2670 -14.2588 -14.2583 -14.2565 -14.2565 -14.2558 -14.2545
   -14.2543 -14.2538 -14.2473 -14.2464 -14.2442 -14.2431 -14.2417 -14.2369
   -14.2340 -14.2333 -14.2330 -14.2326 -14.2312 -14.2291 -14.2280 -14.2269
   -14.2231 -14.2229 -14.2224 -14.2218 -14.2152 -14.2110 -14.2095 -14.2002
   -10.4746 -10.4641 -10.4604 -10.4514 -10.4486 -10.4352 -10.4324 -10.4199
    -9.6554  -9.5665  -9.4956  -9.4824  -9.4138  -9.3820  -9.3388  -9.3008
    -9.2812  -9.2693  -9.2451  -9.2317  -9.2091  -9.1893  -9.1711  -9.1574
    -9.1468  -9.0967  -9.0867  -9.0695  -9.0523  -9.0272  -9.0068  -8.9941
    -6.9895  -6.9663  -6.9505  -6.9396  -6.9364  -6.9345  -6.9296  -6.9123
    -6.8960  -6.8617  -6.8097  -6.7823  -6.7783  -6.7772  -6.7576  -6.7518
    -5.7760  -5.5856  -5.3626  -5.3290  -5.1871  -5.1444  -4.9420  -4.8696
    -4.8405  -4.8216  -4.8078  -4.8011  -4.7975  -4.7888  -4.7725  -4.6820
    -2.7927  -2.7737  -2.7640  -2.7595  -2.7488  -2.7406  -2.7357  -2.7313
    -2.7294  -2.7196  -2.7133  -2.7070  -2.7004  -2.6974  -2.6901  -2.6834
    -0.8755  -0.8357  -0.7781  -0.7642  -0.7394  -0.7148  -0.6440  -0.5504
    -0.4468  -0.3688  -0.2902  -0.2050   0.0916   0.1649   0.2640   0.2814
     0.3269   0.3421   0.3567   0.3711   0.4423   0.4553   0.4735   0.5452
     0.5533   0.6185   0.6333   0.6541   0.7298   0.8099   0.8296   0.8419
     0.8940   0.9226   0.9319   0.9619   0.9873   0.9990   1.0065   1.0267
     1.0342   1.0546   1.0890   1.1127   1.1441   1.1539   1.1861   1.2086
     1.2196   1.2260   1.2406   1.2562   1.2629   1.2872   1.3073   1.3245
     1.3464   1.3540   1.3945   1.4089   1.4637   1.4859   1.5039   1.5269
     1.5596   1.5717   1.5857   1.5951   1.6198   1.6592   1.8191   1.8694

          k = 0.1250 0.3790 0.3873 (299716 PWs)   bands (ev):

   -17.5433 -17.4753 -17.4529 -17.4285 -17.4209 -17.4126 -17.4111 -17.3992
   -14.2957 -14.2934 -14.2905 -14.2878 -14.2793 -14.2717 -14.2694 -14.2673
   -14.2672 -14.2646 -14.2607 -14.2594 -14.2565 -14.2565 -14.2564 -14.2545
   -14.2538 -14.2532 -14.2472 -14.2465 -14.2442 -14.2437 -14.2417 -14.2378
   -14.2340 -14.2333 -14.2330 -14.2326 -14.2312 -14.2291 -14.2280 -14.2269
   -14.2230 -14.2229 -14.2224 -14.2218 -14.2152 -14.2110 -14.2095 -14.2002
   -10.4717 -10.4669 -10.4580 -10.4539 -10.4474 -10.4344 -10.4335 -10.4209
    -9.6228  -9.5600  -9.5338  -9.4792  -9.4469  -9.3942  -9.3574  -9.3226
    -9.2830  -9.2740  -9.2093  -9.2005  -9.1949  -9.1667  -9.1616  -9.1386
    -9.1223  -9.1129  -9.0937  -9.0745  -9.0633  -9.0340  -9.0249  -8.9995
    -6.9931  -6.9607  -6.9504  -6.9389  -6.9372  -6.9354  -6.9290  -6.9135
    -6.8970  -6.8642  -6.8054  -6.7807  -6.7739  -6.7729  -6.7607  -6.7574
    -5.6568  -5.4727  -5.4679  -5.2886  -5.2493  -5.0877  -5.0738  -4.9414
    -4.8373  -4.8265  -4.8046  -4.8020  -4.7982  -4.7853  -4.7805  -4.7526
    -2.7906  -2.7757  -2.7688  -2.7599  -2.7445  -2.7389  -2.7329  -2.7289
    -2.7273  -2.7230  -2.7152  -2.7079  -2.6966  -2.6947  -2.6922  -2.6841
    -0.8025  -0.7492  -0.7165  -0.6625  -0.5364  -0.4383  -0.4277  -0.3864
    -0.3321  -0.2950  -0.2694  -0.2559   0.0613   0.1132   0.1397   0.1549
     0.2120   0.2581   0.2705   0.3363   0.3790   0.4070   0.4294   0.4401
     0.5140   0.5506   0.6135   0.6382   0.7006   0.7491   0.7868   0.8332
     0.8695   0.8863   0.9032   0.9484   0.9662   0.9834   0.9948   1.0112
     1.0382   1.0463   1.0613   1.0709   1.1047   1.1193   1.1417   1.1525
     1.2092   1.2310   1.2477   1.2555   1.2640   1.2935   1.3132   1.3341
     1.3719   1.3879   1.4069   1.4182   1.4547   1.4673   1.4931   1.4994
     1.5089   1.5506   1.5717   1.5848   1.6109   1.6456   1.6647   1.7063

          k = 0.3749 0.1263 0.1291 (299771 PWs)   bands (ev):

   -17.5433 -17.4753 -17.4529 -17.4285 -17.4209 -17.4126 -17.4111 -17.3992
   -14.2980 -14.2924 -14.2914 -14.2855 -14.2810 -14.2739 -14.2688 -14.2674
   -14.2661 -14.2657 -14.2595 -14.2582 -14.2567 -14.2565 -14.2564 -14.2545
   -14.2538 -14.2538 -14.2472 -14.2464 -14.2443 -14.2435 -14.2417 -14.2365
   -14.2340 -14.2333 -14.2329 -14.2326 -14.2312 -14.2291 -14.2280 -14.2269
   -14.2231 -14.2229 -14.2224 -14.2218 -14.2152 -14.2110 -14.2095 -14.2002
   -10.4773 -10.4650 -10.4560 -10.4515 -10.4494 -10.4345 -10.4335 -10.4192
    -9.6547  -9.5718  -9.4938  -9.4811  -9.4161  -9.3918  -9.3363  -9.2980
    -9.2885  -9.2536  -9.2422  -9.2150  -9.2029  -9.1955  -9.1850  -9.1444
    -9.1182  -9.1110  -9.1042  -9.0944  -9.0437  -9.0308  -9.0247  -8.9723
    -6.9894  -6.9664  -6.9505  -6.9389  -6.9365  -6.9342  -6.9295  -6.9126
    -6.8963  -6.8622  -6.8102  -6.7821  -6.7790  -6.7761  -6.7556  -6.7533
    -5.7816  -5.6014  -5.3446  -5.3347  -5.1805  -5.1587  -4.9269  -4.8668
    -4.8415  -4.8190  -4.8076  -4.8041  -4.7941  -4.7856  -4.7758  -4.6781
    -2.7958  -2.7692  -2.7617  -2.7583  -2.7522  -2.7414  -2.7373  -2.7310
    -2.7242  -2.7194  -2.7134  -2.7103  -2.7073  -2.6980  -2.6918  -2.6761
    -0.8764  -0.8342  -0.7834  -0.7598  -0.7415  -0.6858  -0.6318  -0.5725
    -0.4558  -0.3693  -0.2988  -0.2114   0.0893   0.1686   0.2610   0.2819
     0.3197   0.3356   0.3606   0.3689   0.4298   0.4428   0.4668   0.5331
     0.5438   0.6138   0.6312   0.6615   0.7186   0.7848   0.8132   0.8245
     0.8843   0.8951   0.9292   0.9773   0.9898   1.0103   1.0312   1.0391
     1.0575   1.0725   1.0971   1.1105   1.1242   1.1577   1.1923   1.1941
     1.2224   1.2405   1.2464   1.2562   1.2739   1.2934   1.3029   1.3124
     1.3240   1.3453   1.3745   1.4298   1.4410   1.4873   1.5003   1.5503
     1.5709   1.5727   1.5957   1.6130   1.6314   1.6467   1.8684   1.9017

          k = 0.3749 0.1263 0.3873 (299755 PWs)   bands (ev):

   -17.5433 -17.4753 -17.4529 -17.4285 -17.4209 -17.4126 -17.4111 -17.3992
   -14.2951 -14.2928 -14.2910 -14.2884 -14.2804 -14.2724 -14.2701 -14.2664
   -14.2657 -14.2641 -14.2602 -14.2599 -14.2578 -14.2565 -14.2565 -14.2545
   -14.2538 -14.2527 -14.2472 -14.2465 -14.2443 -14.2441 -14.2417 -14.2372
   -14.2340 -14.2333 -14.2330 -14.2326 -14.2312 -14.2291 -14.2280 -14.2269
   -14.2230 -14.2229 -14.2224 -14.2218 -14.2152 -14.2110 -14.2095 -14.2002
   -10.4740 -10.4683 -10.4542 -10.4519 -10.4492 -10.4357 -10.4330 -10.4201
    -9.6217  -9.5582  -9.5379  -9.4813  -9.4503  -9.3958  -9.3688  -9.3362
    -9.2507  -9.2345  -9.2255  -9.2051  -9.1893  -9.1610  -9.1575  -9.1440
    -9.1287  -9.1153  -9.1054  -9.0799  -9.0672  -9.0489  -9.0205  -8.9872
    -6.9930  -6.9607  -6.9502  -6.9382  -6.9370  -6.9356  -6.9288  -6.9139
    -6.8974  -6.8643  -6.8056  -6.7806  -6.7741  -6.7728  -6.7597  -6.7582
    -5.6621  -5.4851  -5.4765  -5.3022  -5.2327  -5.0809  -5.0578  -4.9364
    -4.8362  -4.8255  -4.8050  -4.8021  -4.7950  -4.7865  -4.7822  -4.7520
    -2.7942  -2.7679  -2.7630  -2.7574  -2.7448  -2.7425  -2.7375  -2.7287
    -2.7247  -2.7186  -2.7141  -2.7114  -2.7031  -2.6972  -2.6925  -2.6843
    -0.8017  -0.7430  -0.7110  -0.6491  -0.5289  -0.4482  -0.4163  -0.3978
    -0.3516  -0.2988  -0.2755  -0.2412   0.0583   0.0877   0.1318   0.1611
     0.2129   0.2326   0.2608   0.3235   0.3974   0.4098   0.4299   0.4447
     0.5232   0.5747   0.6229   0.6633   0.6687   0.7280   0.7326   0.7953
     0.8224   0.8730   0.8843   0.9160   0.9285   0.9838   1.0130   1.0297
     1.0364   1.0476   1.0679   1.0851   1.1129   1.1408   1.1634   1.1829
     1.2192   1.2476   1.2567   1.2661   1.2890   1.2987   1.3170   1.3304
     1.3525   1.3732   1.3868   1.4229   1.4438   1.4750   1.4845   1.5262
     1.5375   1.5604   1.5760   1.5896   1.6238   1.6506   1.6894   1.7236

          k = 0.3749 0.3790 0.1291 (299736 PWs)   bands (ev):

   -17.5433 -17.4753 -17.4529 -17.4285 -17.4209 -17.4126 -17.4111 -17.3992
   -14.2979 -14.2920 -14.2908 -14.2850 -14.2810 -14.2734 -14.2684 -14.2679
   -14.2665 -14.2661 -14.2589 -14.2584 -14.2568 -14.2565 -14.2564 -14.2545
   -14.2544 -14.2538 -14.2473 -14.2464 -14.2442 -14.2437 -14.2417 -14.2369
   -14.2340 -14.2333 -14.2329 -14.2326 -14.2312 -14.2291 -14.2280 -14.2269
   -14.2231 -14.2229 -14.2224 -14.2218 -14.2152 -14.2110 -14.2095 -14.2002
   -10.4748 -10.4640 -10.4603 -10.4515 -10.4476 -10.4360 -10.4324 -10.4200
    -9.6205  -9.5564  -9.5373  -9.4663  -9.4351  -9.4005  -9.3881  -9.3258
    -9.2949  -9.2534  -9.2321  -9.2077  -9.1878  -9.1659  -9.1528  -9.1191
    -9.1143  -9.1107  -9.0930  -9.0738  -9.0672  -9.0403  -9.0289  -8.9976
    -6.9895  -6.9662  -6.9506  -6.9397  -6.9365  -6.9334  -6.9296  -6.9119
    -6.8958  -6.8619  -6.8097  -6.7807  -6.7789  -6.7778  -6.7566  -6.7539
    -5.6677  -5.4984  -5.4738  -5.3135  -5.2339  -5.0603  -5.0390  -4.9444
    -4.8426  -4.8206  -4.8134  -4.7977  -4.7928  -4.7873  -4.7782  -4.7421
    -2.7896  -2.7710  -2.7615  -2.7538  -2.7458  -2.7401  -2.7356  -2.7320
    -2.7296  -2.7223  -2.7167  -2.7105  -2.7056  -2.6964  -2.6917  -2.6841
    -0.8604  -0.7673  -0.7444  -0.6806  -0.5082  -0.4714  -0.4352  -0.3384
    -0.3269  -0.2993  -0.2583  -0.2090   0.0676   0.1357   0.1545   0.2293
     0.2762   0.2896   0.3221   0.3304   0.3463   0.3761   0.3820   0.4426
     0.5518   0.5853   0.5921   0.6079   0.7095   0.7222   0.7417   0.7673
     0.7888   0.8082   0.8665   0.8789   0.9149   0.9455   0.9720   0.9828
     1.0154   1.0546   1.0847   1.1156   1.1422   1.1671   1.1837   1.1962
     1.2242   1.2290   1.2503   1.2618   1.2786   1.3054   1.3256   1.3578
     1.3887   1.4109   1.4213   1.4299   1.4625   1.4762   1.4847   1.4985
     1.5245   1.5334   1.5427   1.5589   1.5744   1.6613   1.6788   1.6946

          k = 0.3749 0.3790 0.3873 (299759 PWs)   bands (ev):

   -17.5432 -17.4753 -17.4529 -17.4285 -17.4209 -17.4126 -17.4111 -17.3992
   -14.2951 -14.2926 -14.2903 -14.2878 -14.2803 -14.2720 -14.2697 -14.2670
   -14.2663 -14.2642 -14.2602 -14.2595 -14.2580 -14.2565 -14.2565 -14.2545
   -14.2538 -14.2533 -14.2472 -14.2465 -14.2443 -14.2442 -14.2417 -14.2378
   -14.2340 -14.2333 -14.2330 -14.2326 -14.2312 -14.2291 -14.2280 -14.2269
   -14.2230 -14.2229 -14.2224 -14.2218 -14.2152 -14.2110 -14.2095 -14.2002
   -10.4717 -10.4669 -10.4578 -10.4539 -10.4466 -10.4348 -10.4336 -10.4210
    -9.5894  -9.5316  -9.5197  -9.5074  -9.4624  -9.4493  -9.4101  -9.3748
    -9.2437  -9.2195  -9.1986  -9.1835  -9.1688  -9.1609  -9.1457  -9.1304
    -9.1259  -9.1020  -9.0962  -9.0851  -9.0694  -9.0479  -9.0404  -9.0077
    -6.9931  -6.9605  -6.9506  -6.9388  -6.9368  -6.9348  -6.9289  -6.9134
    -6.8967  -6.8643  -6.8055  -6.7807  -6.7741  -6.7728  -6.7600  -6.7585
    -5.5526  -5.3834  -5.3735  -5.3587  -5.2106  -5.2025  -5.1797  -5.0523
    -4.8380  -4.8271  -4.8082  -4.7997  -4.7949  -4.7882  -4.7814  -4.7709
    -2.7889  -2.7740  -2.7652  -2.7536  -2.7475  -2.7396  -2.7336  -2.7305
    -2.7281  -2.7221  -2.7189  -2.7079  -2.6999  -2.6945  -2.6920  -2.6841
    -0.5513  -0.5137  -0.4801  -0.4473  -0.4311  -0.3732  -0.3626  -0.3396
    -0.3284  -0.2919  -0.2715  -0.2072   0.0625   0.0876   0.1188   0.1445
     0.1765   0.1928   0.2248   0.2379   0.2833   0.2932   0.3054   0.3623
     0.5895   0.5999   0.6249   0.6417   0.6765   0.7106   0.7339   0.7542
     0.7743   0.8003   0.8461   0.8677   0.8832   0.8968   0.9215   0.9335
     0.9530   0.9726   0.9907   1.0132   1.0373   1.0473   1.0875   1.1012
     1.2471   1.2708   1.2777   1.2810   1.3141   1.3236   1.3426   1.3604
     1.3927   1.4073   1.4168   1.4330   1.4596   1.4651   1.4734   1.4991
     1.5139   1.5259   1.5481   1.5502   1.5672   1.5753   1.5901   1.5954

          k =-0.1250-0.1263 0.1291 (299727 PWs)   bands (ev):

   -17.5433 -17.4753 -17.4529 -17.4285 -17.4209 -17.4126 -17.4110 -17.3992
   -14.2984 -14.2931 -14.2919 -14.2856 -14.2801 -14.2737 -14.2685 -14.2674
   -14.2668 -14.2665 -14.2594 -14.2581 -14.2566 -14.2565 -14.2558 -14.2545
   -14.2538 -14.2537 -14.2472 -14.2464 -14.2442 -14.2429 -14.2417 -14.2364
   -14.2340 -14.2333 -14.2330 -14.2326 -14.2312 -14.2291 -14.2280 -14.2269
   -14.2231 -14.2229 -14.2224 -14.2218 -14.2152 -14.2110 -14.2095 -14.2002
   -10.4773 -10.4655 -10.4587 -10.4517 -10.4501 -10.4338 -10.4313 -10.4180
    -9.6911  -9.5270  -9.5054  -9.5028  -9.3579  -9.3392  -9.3261  -9.3036
    -9.2786  -9.2592  -9.2457  -9.2425  -9.2169  -9.2102  -9.1968  -9.1684
    -9.1593  -9.1398  -9.1077  -9.0813  -9.0348  -9.0081  -9.0005  -8.9673
    -6.9894  -6.9667  -6.9507  -6.9402  -6.9371  -6.9342  -6.9289  -6.9120
    -6.8960  -6.8621  -6.8101  -6.7815  -6.7792  -6.7773  -6.7565  -6.7512
    -5.8928  -5.4720  -5.4464  -5.4385  -5.0548  -5.0307  -5.0067  -4.8456
    -4.8396  -4.8183  -4.8106  -4.8074  -4.7952  -4.7904  -4.7816  -4.5713
    -2.7993  -2.7707  -2.7644  -2.7602  -2.7537  -2.7432  -2.7395  -2.7309
    -2.7216  -2.7181  -2.7118  -2.7084  -2.7024  -2.6991  -2.6882  -2.6764
    -0.9029  -0.8432  -0.8251  -0.7977  -0.7646  -0.7390  -0.7169  -0.6996
    -0.6604  -0.6083  -0.5614  -0.5257   0.2215   0.2921   0.3002   0.3191
     0.4025   0.4238   0.4434   0.4729   0.4911   0.5683   0.5804   0.5896
     0.6064   0.7252   0.7467   0.7864   0.7954   0.8143   0.8787   0.9114
     0.9207   0.9404   0.9543   0.9733   0.9871   0.9909   1.0145   1.0273
     1.0375   1.0866   1.1040   1.1203   1.1340   1.1466   1.1728   1.1872
     1.2126   1.2230   1.2388   1.2415   1.2516   1.2698   1.2845   1.2997
     1.3195   1.3417   1.3557   1.4166   1.4584   1.4846   1.4925   1.5676
     1.6024   1.6251   1.6584   1.6739   1.7165   1.7938   1.8499   2.0547

          k =-0.1250 0.1263-0.1291 (299727 PWs)   bands (ev):

   -17.5433 -17.4753 -17.4529 -17.4285 -17.4209 -17.4126 -17.4110 -17.3992
   -14.2984 -14.2931 -14.2919 -14.2856 -14.2801 -14.2737 -14.2685 -14.2674
   -14.2668 -14.2665 -14.2594 -14.2581 -14.2566 -14.2565 -14.2558 -14.2545
   -14.2538 -14.2537 -14.2472 -14.2464 -14.2442 -14.2429 -14.2417 -14.2364
   -14.2340 -14.2333 -14.2330 -14.2326 -14.2312 -14.2291 -14.2280 -14.2269
   -14.2231 -14.2229 -14.2224 -14.2218 -14.2152 -14.2110 -14.2095 -14.2002
   -10.4773 -10.4655 -10.4599 -10.4519 -10.4502 -10.4337 -10.4301 -10.4175
    -9.6958  -9.5266  -9.4974  -9.4940  -9.3597  -9.3534  -9.3396  -9.2951
    -9.2742  -9.2605  -9.2507  -9.2377  -9.2197  -9.2030  -9.1970  -9.1675
    -9.1606  -9.1377  -9.1064  -9.0828  -9.0351  -9.0093  -8.9999  -8.9665
    -6.9894  -6.9666  -6.9505  -6.9396  -6.9365  -6.9350  -6.9291  -6.9125
    -6.8962  -6.8621  -6.8101  -6.7824  -6.7789  -6.7764  -6.7567  -6.7511
    -5.8931  -5.4713  -5.4471  -5.4361  -5.0545  -5.0349  -5.0127  -4.8454
    -4.8369  -4.8189  -4.8103  -4.8052  -4.7932  -4.7880  -4.7799  -4.5743
    -2.7998  -2.7704  -2.7650  -2.7609  -2.7528  -2.7434  -2.7402  -2.7320
    -2.7209  -2.7171  -2.7124  -2.7088  -2.7028  -2.6974  -2.6881  -2.6762
    -0.9068  -0.8801  -0.8077  -0.7938  -0.7601  -0.7345  -0.7097  -0.6950
    -0.6633  -0.6058  -0.5638  -0.5098   0.2201   0.2857   0.3054   0.3333
     0.3826   0.4173   0.4374   0.4623   0.4844   0.5321   0.5814   0.5890
     0.6468   0.7340   0.7467   0.7606   0.7904   0.8262   0.8658   0.8922
     0.9176   0.9397   0.9679   0.9810   0.9953   1.0224   1.0345   1.0543
     1.0598   1.0805   1.1001   1.1170   1.1293   1.1460   1.1584   1.1789
     1.2018   1.2109   1.2173   1.2369   1.2542   1.2682   1.2749   1.3095
     1.3377   1.3419   1.3558   1.4038   1.4506   1.4842   1.5093   1.5714
     1.6014   1.6264   1.6366   1.6609   1.7657   1.7901   1.8434   2.0725

          k = 0.1250-0.1263-0.1291 (299727 PWs)   bands (ev):

   -17.5433 -17.4753 -17.4529 -17.4285 -17.4209 -17.4126 -17.4110 -17.3992
   -14.2984 -14.2931 -14.2919 -14.2856 -14.2801 -14.2737 -14.2685 -14.2674
   -14.2668 -14.2665 -14.2594 -14.2581 -14.2566 -14.2565 -14.2558 -14.2545
   -14.2538 -14.2537 -14.2472 -14.2464 -14.2442 -14.2429 -14.2417 -14.2364
   -14.2340 -14.2333 -14.2330 -14.2326 -14.2312 -14.2291 -14.2280 -14.2269
   -14.2231 -14.2229 -14.2224 -14.2218 -14.2152 -14.2110 -14.2095 -14.2002
   -10.4774 -10.4655 -10.4597 -10.4519 -10.4503 -10.4336 -10.4301 -10.4175
    -9.6959  -9.5267  -9.4966  -9.4947  -9.3594  -9.3554  -9.3366  -9.2974
    -9.2726  -9.2604  -9.2515  -9.2375  -9.2169  -9.2062  -9.1985  -9.1665
    -9.1584  -9.1387  -9.1074  -9.0820  -9.0351  -9.0091  -9.0001  -8.9665
    -6.9894  -6.9666  -6.9505  -6.9396  -6.9365  -6.9350  -6.9290  -6.9125
    -6.8964  -6.8620  -6.8102  -6.7824  -6.7789  -6.7765  -6.7566  -6.7511
    -5.8932  -5.4713  -5.4469  -5.4360  -5.0546  -5.0349  -5.0127  -4.8452
    -4.8370  -4.8188  -4.8103  -4.8053  -4.7931  -4.7881  -4.7799  -4.5743
    -2.8001  -2.7704  -2.7661  -2.7602  -2.7529  -2.7419  -2.7408  -2.7318
    -2.7228  -2.7185  -2.7103  -2.7084  -2.7009  -2.6988  -2.6882  -2.6760
    -0.9072  -0.8799  -0.8085  -0.7926  -0.7531  -0.7392  -0.7154  -0.6920
    -0.6624  -0.6061  -0.5642  -0.5104   0.2202   0.2856   0.3062   0.3332
     0.3844   0.4114   0.4435   0.4665   0.4793   0.5282   0.5827   0.5900
     0.6491   0.7334   0.7498   0.7620   0.7924   0.8241   0.8774   0.8901
     0.9129   0.9247   0.9660   0.9813   0.9919   1.0192   1.0278   1.0580
     1.0697   1.0936   1.0976   1.1092   1.1319   1.1478   1.1562   1.1794
     1.2026   1.2067   1.2155   1.2422   1.2527   1.2675   1.2789   1.3027
     1.3367   1.3475   1.3591   1.4026   1.4494   1.4836   1.5081   1.5723
     1.6023   1.6269   1.6359   1.6602   1.7670   1.7882   1.8439   2.0732

          k =-0.1250-0.1263 0.3873 (299734 PWs)   bands (ev):

   -17.5433 -17.4753 -17.4529 -17.4285 -17.4209 -17.4126 -17.4111 -17.3992
   -14.2957 -14.2936 -14.2912 -14.2884 -14.2794 -14.2722 -14.2697 -14.2667
   -14.2666 -14.2645 -14.2606 -14.2599 -14.2565 -14.2565 -14.2562 -14.2545
   -14.2538 -14.2527 -14.2472 -14.2465 -14.2442 -14.2435 -14.2417 -14.2372
   -14.2340 -14.2333 -14.2330 -14.2326 -14.2312 -14.2291 -14.2280 -14.2269
   -14.2230 -14.2229 -14.2224 -14.2218 -14.2152 -14.2110 -14.2095 -14.2002
   -10.4737 -10.4688 -10.4565 -10.4532 -10.4492 -10.4353 -10.4309 -10.4187
    -9.6552  -9.5937  -9.4756  -9.4707  -9.4173  -9.4056  -9.3149  -9.2904
    -9.2799  -9.2646  -9.2375  -9.2284  -9.2021  -9.1918  -9.1745  -9.1542
    -9.1369  -9.1164  -9.1058  -9.0836  -9.0591  -9.0356  -9.0012  -8.9760
    -6.9930  -6.9612  -6.9505  -6.9391  -6.9371  -6.9358  -6.9283  -6.9136
    -6.8971  -6.8643  -6.8055  -6.7806  -6.7738  -6.7730  -6.7606  -6.7571
    -5.7704  -5.5837  -5.3556  -5.3314  -5.1737  -5.1505  -4.9635  -4.8681
    -4.8379  -4.8254  -4.8125  -4.8072  -4.7960  -4.7827  -4.7723  -4.6900
    -2.7960  -2.7738  -2.7644  -2.7539  -2.7473  -2.7422  -2.7360  -2.7300
    -2.7236  -2.7173  -2.7124  -2.7095  -2.7033  -2.6965  -2.6924  -2.6844
    -0.8150  -0.7976  -0.7694  -0.7300  -0.6971  -0.6869  -0.6368  -0.6172
    -0.4811  -0.3809  -0.3643  -0.2470   0.0459   0.1346   0.1454   0.2461
     0.3325   0.3488   0.3936   0.4118   0.4344   0.4540   0.4671   0.5112
     0.5170   0.5645   0.7492   0.7618   0.7798   0.8031   0.8673   0.8948
     0.9032   0.9279   0.9453   0.9696   1.0019   1.0188   1.0426   1.0539
     1.0578   1.0764   1.0961   1.1048   1.1208   1.1321   1.1454   1.1700
     1.1937   1.2096   1.2281   1.2369   1.2567   1.2735   1.2811   1.3117
     1.3517   1.3567   1.3869   1.4116   1.4290   1.4608   1.4642   1.5432
     1.5870   1.6151   1.6416   1.6564   1.6669   1.6803   1.7526   1.8579

          k =-0.1250 0.1263-0.3873 (299734 PWs)   bands (ev):

   -17.5433 -17.4753 -17.4529 -17.4285 -17.4209 -17.4126 -17.4111 -17.3992
   -14.2957 -14.2936 -14.2912 -14.2884 -14.2794 -14.2722 -14.2697 -14.2667
   -14.2666 -14.2645 -14.2606 -14.2599 -14.2566 -14.2565 -14.2562 -14.2545
   -14.2538 -14.2527 -14.2472 -14.2465 -14.2442 -14.2435 -14.2417 -14.2372
   -14.2340 -14.2333 -14.2330 -14.2326 -14.2312 -14.2291 -14.2280 -14.2269
   -14.2230 -14.2229 -14.2224 -14.2218 -14.2152 -14.2110 -14.2095 -14.2002
   -10.4738 -10.4688 -10.4576 -10.4537 -10.4489 -10.4353 -10.4299 -10.4181
    -9.6596  -9.5946  -9.4692  -9.4614  -9.4130  -9.4055  -9.3324  -9.3001
    -9.2770  -9.2680  -9.2353  -9.2234  -9.2007  -9.1882  -9.1765  -9.1551
    -9.1317  -9.1156  -9.1090  -9.0835  -9.0599  -9.0364  -8.9999  -8.9752
    -6.9931  -6.9611  -6.9502  -6.9388  -6.9369  -6.9364  -6.9285  -6.9139
    -6.8973  -6.8643  -6.8055  -6.7806  -6.7739  -6.7730  -6.7606  -6.7571
    -5.7698  -5.5818  -5.3556  -5.3331  -5.1757  -5.1539  -4.9613  -4.8618
    -4.8392  -4.8254  -4.8149  -4.8083  -4.7940  -4.7812  -4.7710  -4.6933
    -2.7965  -2.7743  -2.7638  -2.7536  -2.7470  -2.7412  -2.7373  -2.7311
    -2.7244  -2.7161  -2.7132  -2.7096  -2.7029  -2.6964  -2.6922  -2.6838
    -0.8543  -0.7986  -0.7624  -0.7058  -0.6969  -0.6688  -0.6373  -0.6056
    -0.4919  -0.3767  -0.3617  -0.2505   0.0425   0.1328   0.1471   0.2403
     0.3233   0.3484   0.3924   0.4080   0.4325   0.4542   0.4678   0.4901
     0.5197   0.5881   0.7675   0.7722   0.7852   0.8050   0.8172   0.8460
     0.9246   0.9382   0.9690   0.9786   1.0060   1.0201   1.0378   1.0487
     1.0587   1.0778   1.0827   1.1023   1.1165   1.1449   1.1607   1.1638
     1.1781   1.2090   1.2254   1.2378   1.2536   1.2648   1.2854   1.3397
     1.3582   1.3730   1.3826   1.4087   1.4307   1.4533   1.4682   1.5433
     1.5866   1.6185   1.6267   1.6411   1.6503   1.6641   1.7937   1.8819

          k = 0.1250-0.1263-0.3873 (299734 PWs)   bands (ev):

   -17.5433 -17.4753 -17.4529 -17.4285 -17.4209 -17.4126 -17.4111 -17.3992
   -14.2957 -14.2936 -14.2912 -14.2884 -14.2794 -14.2722 -14.2697 -14.2667
   -14.2666 -14.2645 -14.2606 -14.2599 -14.2566 -14.2565 -14.2562 -14.2545
   -14.2538 -14.2527 -14.2472 -14.2465 -14.2442 -14.2435 -14.2417 -14.2372
   -14.2340 -14.2333 -14.2330 -14.2326 -14.2312 -14.2291 -14.2280 -14.2269
   -14.2230 -14.2229 -14.2224 -14.2218 -14.2152 -14.2110 -14.2095 -14.2002
   -10.4739 -10.4686 -10.4573 -10.4540 -10.4490 -10.4352 -10.4299 -10.4181
    -9.6596  -9.5946  -9.4672  -9.4636  -9.4158  -9.4017  -9.3341  -9.2970
    -9.2808  -9.2665  -9.2328  -9.2253  -9.2009  -9.1898  -9.1773  -9.1487
    -9.1361  -9.1175  -9.1064  -9.0840  -9.0602  -9.0360  -9.0000  -8.9751
    -6.9931  -6.9610  -6.9503  -6.9386  -6.9370  -6.9365  -6.9285  -6.9138
    -6.8975  -6.8642  -6.8055  -6.7806  -6.7738  -6.7730  -6.7606  -6.7571
    -5.7700  -5.5815  -5.3557  -5.3328  -5.1756  -5.1542  -4.9616  -4.8612
    -4.8393  -4.8255  -4.8149  -4.8083  -4.7940  -4.7812  -4.7712  -4.6933
    -2.7968  -2.7741  -2.7642  -2.7550  -2.7448  -2.7424  -2.7350  -2.7315
    -2.7259  -2.7182  -2.7131  -2.7091  -2.7009  -2.6947  -2.6935  -2.6842
    -0.8556  -0.7973  -0.7618  -0.7077  -0.6927  -0.6704  -0.6369  -0.6064
    -0.4922  -0.3804  -0.3597  -0.2517   0.0431   0.1371   0.1448   0.2416
     0.3239   0.3495   0.3898   0.4068   0.4303   0.4539   0.4709   0.4902
     0.5228   0.5899   0.7646   0.7697   0.7737   0.8096   0.8200   0.8455
     0.9237   0.9409   0.9715   0.9820   1.0109   1.0183   1.0425   1.0451
     1.0579   1.0752   1.0824   1.0971   1.1150   1.1382   1.1584   1.1669
     1.1859   1.2133   1.2259   1.2360   1.2478   1.2689   1.2845   1.3432
     1.3597   1.3680   1.3803   1.4113   1.4283   1.4550   1.4684   1.5432
     1.5894   1.6202   1.6227   1.6370   1.6517   1.6668   1.7936   1.8827

          k =-0.1250-0.3790 0.1291 (299715 PWs)   bands (ev):

   -17.5433 -17.4753 -17.4529 -17.4285 -17.4209 -17.4126 -17.4110 -17.3992
   -14.2983 -14.2928 -14.2913 -14.2851 -14.2800 -14.2731 -14.2682 -14.2678
   -14.2673 -14.2670 -14.2588 -14.2583 -14.2565 -14.2565 -14.2558 -14.2545
   -14.2543 -14.2538 -14.2473 -14.2464 -14.2442 -14.2431 -14.2417 -14.2369
   -14.2340 -14.2333 -14.2330 -14.2326 -14.2312 -14.2291 -14.2280 -14.2269
   -14.2231 -14.2229 -14.2224 -14.2218 -14.2152 -14.2110 -14.2095 -14.2002
   -10.4744 -10.4643 -10.4605 -10.4514 -10.4485 -10.4353 -10.4324 -10.4198
    -9.6546  -9.5670  -9.4979  -9.4823  -9.4127  -9.3831  -9.3341  -9.3040
    -9.2802  -9.2662  -9.2483  -9.2313  -9.2114  -9.1894  -9.1702  -9.1577
    -9.1455  -9.0982  -9.0847  -9.0697  -9.0525  -9.0276  -9.0069  -8.9943
    -6.9895  -6.9663  -6.9506  -6.9397  -6.9364  -6.9342  -6.9298  -6.9123
    -6.8960  -6.8617  -6.8097  -6.7823  -6.7782  -6.7773  -6.7576  -6.7518
    -5.7756  -5.5859  -5.3625  -5.3294  -5.1870  -5.1442  -4.9415  -4.8710
    -4.8405  -4.8215  -4.8080  -4.8010  -4.7976  -4.7889  -4.7726  -4.6807
    -2.7917  -2.7732  -2.7647  -2.7567  -2.7496  -2.7411  -2.7379  -2.7319
    -2.7273  -2.7169  -2.7131  -2.7084  -2.7026  -2.6983  -2.6898  -2.6838
    -0.8821  -0.8330  -0.7772  -0.7696  -0.7338  -0.7148  -0.6440  -0.5511
    -0.4425  -0.3650  -0.2909  -0.2047   0.0896   0.1624   0.2656   0.2817
     0.3256   0.3396   0.3569   0.3698   0.4437   0.4596   0.4842   0.5425
     0.5491   0.6203   0.6307   0.6497   0.7278   0.8149   0.8366   0.8453
     0.8899   0.9191   0.9279   0.9633   0.9789   0.9981   1.0001   1.0169
     1.0348   1.0604   1.0922   1.1137   1.1448   1.1596   1.1917   1.2097
     1.2180   1.2271   1.2395   1.2541   1.2732   1.2840   1.3074   1.3255
     1.3360   1.3483   1.3920   1.4202   1.4629   1.4893   1.5066   1.5183
     1.5591   1.5738   1.5890   1.5931   1.6192   1.6578   1.8197   1.8717

          k =-0.1250 0.3790-0.1291 (299715 PWs)   bands (ev):

   -17.5433 -17.4753 -17.4529 -17.4285 -17.4209 -17.4126 -17.4110 -17.3992
   -14.2983 -14.2928 -14.2913 -14.2851 -14.2800 -14.2731 -14.2681 -14.2678
   -14.2673 -14.2670 -14.2588 -14.2583 -14.2565 -14.2565 -14.2558 -14.2545
   -14.2543 -14.2538 -14.2473 -14.2464 -14.2442 -14.2431 -14.2417 -14.2369
   -14.2340 -14.2333 -14.2330 -14.2326 -14.2312 -14.2291 -14.2280 -14.2269
   -14.2231 -14.2229 -14.2224 -14.2218 -14.2152 -14.2110 -14.2095 -14.2002
   -10.4743 -10.4643 -10.4619 -10.4519 -10.4484 -10.4343 -10.4320 -10.4193
    -9.6634  -9.5562  -9.4980  -9.4640  -9.4142  -9.4067  -9.3385  -9.2984
    -9.2778  -9.2709  -9.2492  -9.2284  -9.2092  -9.1902  -9.1705  -9.1570
    -9.1433  -9.1000  -9.0860  -9.0633  -9.0541  -9.0291  -9.0109  -8.9908
    -6.9895  -6.9663  -6.9504  -6.9387  -6.9363  -6.9347  -6.9302  -6.9128
    -6.8962  -6.8617  -6.8097  -6.7830  -6.7783  -6.7763  -6.7578  -6.7518
    -5.7761  -5.5856  -5.3628  -5.3229  -5.1865  -5.1524  -4.9568  -4.8544
    -4.8413  -4.8208  -4.8116  -4.7988  -4.7939  -4.7869  -4.7670  -4.6898
    -2.7924  -2.7726  -2.7656  -2.7557  -2.7510  -2.7408  -2.7390  -2.7316
    -2.7269  -2.7173  -2.7135  -2.7080  -2.7029  -2.6964  -2.6904  -2.6831
    -0.8814  -0.8498  -0.7832  -0.7574  -0.7355  -0.7150  -0.6479  -0.5571
    -0.4271  -0.3436  -0.2698  -0.1888   0.0779   0.1225   0.2530   0.2708
     0.3262   0.3436   0.3596   0.3868   0.4224   0.4385   0.4744   0.5040
     0.5471   0.6324   0.6521   0.6964   0.7220   0.8143   0.8276   0.8477
     0.8962   0.9148   0.9286   0.9801   0.9881   1.0046   1.0168   1.0322
     1.0412   1.0547   1.0954   1.1011   1.1376   1.1519   1.1785   1.2075
     1.2099   1.2301   1.2439   1.2552   1.2736   1.2806   1.3056   1.3310
     1.3382   1.3554   1.3849   1.4145   1.4427   1.4763   1.5029   1.5268
     1.5510   1.5695   1.5839   1.5995   1.6342   1.6791   1.8016   1.9030

          k = 0.1250-0.3790-0.1291 (299715 PWs)   bands (ev):

   -17.5433 -17.4753 -17.4529 -17.4285 -17.4209 -17.4126 -17.4110 -17.3992
   -14.2983 -14.2928 -14.2913 -14.2851 -14.2800 -14.2731 -14.2681 -14.2678
   -14.2673 -14.2670 -14.2588 -14.2583 -14.2565 -14.2565 -14.2558 -14.2545
   -14.2543 -14.2538 -14.2473 -14.2464 -14.2442 -14.2431 -14.2417 -14.2369
   -14.2340 -14.2333 -14.2330 -14.2326 -14.2312 -14.2291 -14.2280 -14.2269
   -14.2231 -14.2229 -14.2224 -14.2218 -14.2152 -14.2110 -14.2095 -14.2002
   -10.4743 -10.4642 -10.4619 -10.4520 -10.4486 -10.4343 -10.4319 -10.4193
    -9.6638  -9.5551  -9.4969  -9.4652  -9.4151  -9.4089  -9.3322  -9.3022
    -9.2758  -9.2709  -9.2516  -9.2274  -9.2110  -9.1889  -9.1694  -9.1581
    -9.1433  -9.0992  -9.0866  -9.0643  -9.0534  -9.0283  -9.0112  -8.9908
    -6.9895  -6.9662  -6.9504  -6.9388  -6.9363  -6.9347  -6.9301  -6.9128
    -6.8963  -6.8616  -6.8097  -6.7829  -6.7784  -6.7762  -6.7577  -6.7518
    -5.7764  -5.5852  -5.3629  -5.3225  -5.1865  -5.1528  -4.9576  -4.8534
    -4.8415  -4.8207  -4.8117  -4.7987  -4.7938  -4.7868  -4.7666  -4.6904
    -2.7930  -2.7725  -2.7648  -2.7581  -2.7493  -2.7412  -2.7369  -2.7312
    -2.7299  -2.7187  -2.7131  -2.7057  -2.7017  -2.6973  -2.6909  -2.6829
    -0.8836  -0.8474  -0.7822  -0.7671  -0.7256  -0.7135  -0.6473  -0.5564
    -0.4305  -0.3473  -0.2702  -0.1895   0.0818   0.1250   0.2533   0.2666
     0.3314   0.3445   0.3595   0.3844   0.4217   0.4329   0.4643   0.5109
     0.5633   0.6335   0.6421   0.6943   0.7280   0.8180   0.8380   0.8508
     0.8928   0.9112   0.9283   0.9776   0.9825   0.9995   1.0027   1.0298
     1.0426   1.0552   1.0994   1.1005   1.1409   1.1546   1.1787   1.2020
     1.2136   1.2345   1.2449   1.2648   1.2725   1.2818   1.2946   1.3223
     1.3412   1.3592   1.3905   1.4061   1.4419   1.4788   1.5054   1.5317
     1.5521   1.5660   1.5852   1.5973   1.6370   1.6784   1.8010   1.9033

          k =-0.1250-0.3790 0.3873 (299716 PWs)   bands (ev):

   -17.5433 -17.4753 -17.4529 -17.4285 -17.4209 -17.4126 -17.4111 -17.3992
   -14.2957 -14.2934 -14.2905 -14.2878 -14.2793 -14.2717 -14.2694 -14.2673
   -14.2672 -14.2646 -14.2607 -14.2594 -14.2565 -14.2565 -14.2564 -14.2545
   -14.2538 -14.2532 -14.2472 -14.2465 -14.2442 -14.2437 -14.2417 -14.2378
   -14.2340 -14.2333 -14.2330 -14.2326 -14.2312 -14.2291 -14.2280 -14.2269
   -14.2230 -14.2229 -14.2224 -14.2218 -14.2152 -14.2110 -14.2095 -14.2002
   -10.4713 -10.4672 -10.4582 -10.4537 -10.4473 -10.4345 -10.4335 -10.4208
    -9.6205  -9.5630  -9.5356  -9.4763  -9.4489  -9.3917  -9.3615  -9.3158
    -9.2869  -9.2727  -9.2113  -9.2012  -9.1954  -9.1651  -9.1593  -9.1398
    -9.1242  -9.1130  -9.0912  -9.0754  -9.0607  -9.0379  -9.0235  -8.9997
    -6.9932  -6.9608  -6.9504  -6.9393  -6.9370  -6.9351  -6.9291  -6.9135
    -6.8969  -6.8642  -6.8054  -6.7807  -6.7737  -6.7731  -6.7608  -6.7575
    -5.6560  -5.4739  -5.4683  -5.2874  -5.2499  -5.0862  -5.0746  -4.9434
    -4.8374  -4.8262  -4.8049  -4.8019  -4.7983  -4.7854  -4.7802  -4.7512
    -2.7892  -2.7756  -2.7696  -2.7579  -2.7444  -2.7392  -2.7346  -2.7298
    -2.7247  -2.7230  -2.7150  -2.7072  -2.6997  -2.6952  -2.6918  -2.6844
    -0.8040  -0.7496  -0.7173  -0.6628  -0.5431  -0.4409  -0.4362  -0.3825
    -0.3183  -0.2876  -0.2692  -0.2445   0.0574   0.1018   0.1306   0.1580
     0.2152   0.2630   0.2698   0.3428   0.3744   0.4019   0.4338   0.4410
     0.5181   0.5473   0.6068   0.6370   0.7037   0.7502   0.7886   0.8370
     0.8567   0.8795   0.9009   0.9485   0.9673   0.9787   0.9984   1.0148
     1.0406   1.0495   1.0600   1.0702   1.1110   1.1247   1.1401   1.1529
     1.2066   1.2334   1.2479   1.2541   1.2736   1.2823   1.3137   1.3297
     1.3710   1.3898   1.4115   1.4309   1.4503   1.4682   1.4795   1.4975
     1.5204   1.5404   1.5713   1.5889   1.6134   1.6410   1.6654   1.7078

          k =-0.1250 0.3790-0.3873 (299716 PWs)   bands (ev):

   -17.5433 -17.4753 -17.4529 -17.4285 -17.4209 -17.4126 -17.4111 -17.3992
   -14.2957 -14.2934 -14.2905 -14.2878 -14.2793 -14.2717 -14.2694 -14.2673
   -14.2672 -14.2646 -14.2607 -14.2594 -14.2566 -14.2565 -14.2564 -14.2545
   -14.2538 -14.2532 -14.2472 -14.2465 -14.2442 -14.2437 -14.2417 -14.2378
   -14.2340 -14.2333 -14.2330 -14.2326 -14.2312 -14.2291 -14.2280 -14.2269
   -14.2230 -14.2229 -14.2224 -14.2218 -14.2152 -14.2110 -14.2095 -14.2002
   -10.4713 -10.4671 -10.4595 -10.4544 -10.4472 -10.4341 -10.4328 -10.4201
    -9.6280  -9.5661  -9.5273  -9.4690  -9.4338  -9.3886  -9.3800  -9.3315
    -9.2813  -9.2741  -9.2110  -9.1980  -9.1931  -9.1674  -9.1575  -9.1372
    -9.1270  -9.1124  -9.0880  -9.0775  -9.0626  -9.0408  -9.0206  -8.9978
    -6.9932  -6.9607  -6.9501  -6.9387  -6.9375  -6.9352  -6.9295  -6.9137
    -6.8971  -6.8642  -6.8054  -6.7806  -6.7738  -6.7729  -6.7608  -6.7574
    -5.6544  -5.4725  -5.4671  -5.2922  -5.2526  -5.0827  -5.0819  -4.9310
    -4.8389  -4.8273  -4.8095  -4.8027  -4.7953  -4.7833  -4.7791  -4.7543
    -2.7899  -2.7755  -2.7703  -2.7566  -2.7435  -2.7393  -2.7360  -2.7303
    -2.7257  -2.7219  -2.7154  -2.7082  -2.6983  -2.6956  -2.6911  -2.6841
    -0.8167  -0.7606  -0.7129  -0.6609  -0.5351  -0.4326  -0.4249  -0.3723
    -0.3226  -0.2885  -0.2528  -0.2296   0.0430   0.0801   0.1259   0.1512
     0.2051   0.2345   0.2859   0.3344   0.3678   0.3967   0.4375   0.4481
     0.5101   0.5640   0.6229   0.6404   0.6882   0.7452   0.7895   0.8218
     0.8702   0.8940   0.9293   0.9455   0.9722   0.9922   1.0042   1.0128
     1.0234   1.0420   1.0490   1.0636   1.0785   1.1268   1.1398   1.1770
     1.2022   1.2312   1.2512   1.2636   1.2794   1.2938   1.3016   1.3431
     1.3858   1.3945   1.4142   1.4303   1.4534   1.4559   1.4790   1.4883
     1.5159   1.5239   1.5430   1.5683   1.6083   1.6460   1.6923   1.7470

          k = 0.1250-0.3790-0.3873 (299716 PWs)   bands (ev):

   -17.5433 -17.4753 -17.4529 -17.4285 -17.4209 -17.4126 -17.4111 -17.3992
   -14.2957 -14.2934 -14.2905 -14.2878 -14.2793 -14.2717 -14.2694 -14.2673
   -14.2672 -14.2646 -14.2607 -14.2594 -14.2566 -14.2565 -14.2564 -14.2545
   -14.2538 -14.2532 -14.2472 -14.2465 -14.2442 -14.2437 -14.2417 -14.2378
   -14.2340 -14.2333 -14.2330 -14.2326 -14.2312 -14.2291 -14.2280 -14.2269
   -14.2230 -14.2229 -14.2224 -14.2218 -14.2152 -14.2110 -14.2095 -14.2002
   -10.4714 -10.4669 -10.4593 -10.4545 -10.4473 -10.4341 -10.4326 -10.4202
    -9.6291  -9.5649  -9.5240  -9.4735  -9.4364  -9.3843  -9.3799  -9.3301
    -9.2860  -9.2718  -9.2086  -9.2010  -9.1918  -9.1684  -9.1590  -9.1343
    -9.1267  -9.1119  -9.0912  -9.0750  -9.0655  -9.0374  -9.0221  -8.9977
    -6.9932  -6.9607  -6.9502  -6.9388  -6.9375  -6.9351  -6.9294  -6.9137
    -6.8973  -6.8641  -6.8054  -6.7806  -6.7737  -6.7730  -6.7607  -6.7574
    -5.6551  -5.4712  -5.4668  -5.2930  -5.2528  -5.0865  -5.0789  -4.9297
    -4.8390  -4.8272  -4.8098  -4.8023  -4.7950  -4.7834  -4.7794  -4.7547
    -2.7909  -2.7751  -2.7691  -2.7580  -2.7426  -2.7402  -2.7336  -2.7296
    -2.7293  -2.7222  -2.7150  -2.7070  -2.6993  -2.6935  -2.6922  -2.6839
    -0.8172  -0.7613  -0.7153  -0.6599  -0.5250  -0.4229  -0.4209  -0.3753
    -0.3339  -0.2930  -0.2573  -0.2426   0.0459   0.0889   0.1369   0.1526
     0.2061   0.2400   0.2779   0.3266   0.3679   0.4037   0.4387   0.4422
     0.5073   0.5659   0.6289   0.6402   0.6894   0.7449   0.7856   0.8179
     0.8646   0.8958   0.9280   0.9532   0.9697   0.9945   1.0058   1.0121
     1.0212   1.0385   1.0482   1.0636   1.0768   1.1268   1.1450   1.1710
     1.1993   1.2382   1.2565   1.2643   1.2823   1.2868   1.3014   1.3380
     1.3812   1.3953   1.4175   1.4316   1.4489   1.4559   1.4755   1.4966
     1.5110   1.5339   1.5469   1.5658   1.6093   1.6433   1.6921   1.7464

          k =-0.3749-0.1263 0.1291 (299771 PWs)   bands (ev):

   -17.5433 -17.4753 -17.4529 -17.4285 -17.4209 -17.4126 -17.4111 -17.3992
   -14.2980 -14.2924 -14.2914 -14.2855 -14.2810 -14.2739 -14.2688 -14.2674
   -14.2661 -14.2657 -14.2595 -14.2582 -14.2567 -14.2565 -14.2564 -14.2545
   -14.2538 -14.2538 -14.2472 -14.2464 -14.2443 -14.2435 -14.2417 -14.2365
   -14.2340 -14.2333 -14.2329 -14.2326 -14.2312 -14.2291 -14.2280 -14.2269
   -14.2231 -14.2229 -14.2224 -14.2218 -14.2152 -14.2110 -14.2095 -14.2002
   -10.4772 -10.4651 -10.4561 -10.4514 -10.4493 -10.4345 -10.4335 -10.4192
    -9.6538  -9.5724  -9.4956  -9.4817  -9.4138  -9.3932  -9.3358  -9.2958
    -9.2868  -9.2558  -9.2416  -9.2178  -9.2049  -9.1930  -9.1852  -9.1439
    -9.1185  -9.1102  -9.1037  -9.0939  -9.0446  -9.0309  -9.0248  -8.9724
    -6.9894  -6.9664  -6.9505  -6.9389  -6.9365  -6.9341  -6.9296  -6.9126
    -6.8963  -6.8623  -6.8101  -6.7819  -6.7790  -6.7763  -6.7556  -6.7534
    -5.7814  -5.6014  -5.3447  -5.3348  -5.1805  -5.1586  -4.9265  -4.8680
    -4.8415  -4.8189  -4.8076  -4.8041  -4.7942  -4.7856  -4.7762  -4.6767
    -2.7951  -2.7677  -2.7607  -2.7567  -2.7556  -2.7399  -2.7389  -2.7306
    -2.7230  -2.7178  -2.7153  -2.7104  -2.7075  -2.6998  -2.6919  -2.6765
    -0.8859  -0.8246  -0.7927  -0.7599  -0.7350  -0.6851  -0.6313  -0.5725
    -0.4521  -0.3668  -0.2998  -0.2122   0.0870   0.1665   0.2682   0.2826
     0.3174   0.3369   0.3604   0.3645   0.4305   0.4435   0.4736   0.5299
     0.5438   0.6134   0.6297   0.6573   0.7185   0.7886   0.8155   0.8365
     0.8778   0.8934   0.9244   0.9742   0.9898   1.0075   1.0207   1.0355
     1.0555   1.0720   1.0985   1.1146   1.1257   1.1631   1.1925   1.1980
     1.2227   1.2362   1.2537   1.2596   1.2677   1.2849   1.2981   1.3175
     1.3335   1.3489   1.3716   1.4275   1.4438   1.4863   1.5106   1.5430
     1.5532   1.5836   1.5914   1.6139   1.6302   1.6509   1.8695   1.9046

          k =-0.3749 0.1263-0.1291 (299771 PWs)   bands (ev):

   -17.5433 -17.4753 -17.4529 -17.4285 -17.4209 -17.4126 -17.4111 -17.3992
   -14.2980 -14.2924 -14.2914 -14.2855 -14.2810 -14.2739 -14.2688 -14.2674
   -14.2661 -14.2657 -14.2595 -14.2582 -14.2567 -14.2565 -14.2564 -14.2545
   -14.2538 -14.2538 -14.2472 -14.2464 -14.2443 -14.2435 -14.2417 -14.2365
   -14.2340 -14.2333 -14.2329 -14.2326 -14.2312 -14.2291 -14.2280 -14.2269
   -14.2231 -14.2229 -14.2224 -14.2218 -14.2152 -14.2110 -14.2095 -14.2002
   -10.4772 -10.4652 -10.4577 -10.4514 -10.4494 -10.4342 -10.4324 -10.4187
    -9.6635  -9.5598  -9.4949  -9.4636  -9.4195  -9.4149  -9.3320  -9.2982
    -9.2883  -9.2529  -9.2412  -9.2200  -9.2061  -9.1926  -9.1814  -9.1446
    -9.1176  -9.1116  -9.1014  -9.0898  -9.0503  -9.0297  -9.0242  -8.9718
    -6.9894  -6.9663  -6.9504  -6.9377  -6.9367  -6.9345  -6.9300  -6.9131
    -6.8965  -6.8623  -6.8102  -6.7826  -6.7789  -6.7754  -6.7559  -6.7532
    -5.7819  -5.6010  -5.3450  -5.3283  -5.1799  -5.1668  -4.9438  -4.8505
    -4.8428  -4.8167  -4.8133  -4.7988  -4.7926  -4.7831  -4.7697  -4.6863
    -2.7957  -2.7665  -2.7628  -2.7579  -2.7533  -2.7415  -2.7371  -2.7338
    -2.7220  -2.7166  -2.7151  -2.7109  -2.7079  -2.6986  -2.6918  -2.6763
    -0.8888  -0.8377  -0.7916  -0.7607  -0.7322  -0.6825  -0.6359  -0.5783
    -0.4367  -0.3492  -0.2755  -0.1981   0.0769   0.1296   0.2481   0.2701
     0.3198   0.3399   0.3628   0.3790   0.4122   0.4291   0.4530   0.5054
     0.5468   0.6312   0.6342   0.7003   0.7184   0.7870   0.8161   0.8472
     0.8707   0.9118   0.9538   0.9659   0.9878   0.9965   1.0139   1.0396
     1.0650   1.0790   1.0923   1.1178   1.1300   1.1523   1.1825   1.2089
     1.2220   1.2321   1.2456   1.2620   1.2671   1.2818   1.2986   1.3207
     1.3278   1.3444   1.3735   1.4212   1.4360   1.4725   1.5028   1.5468
     1.5671   1.5800   1.5850   1.6091   1.6271   1.6890   1.8499   1.9353

          k = 0.3749-0.1263-0.1291 (299771 PWs)   bands (ev):

   -17.5433 -17.4753 -17.4529 -17.4285 -17.4209 -17.4126 -17.4111 -17.3992
   -14.2980 -14.2924 -14.2914 -14.2855 -14.2810 -14.2739 -14.2688 -14.2674
   -14.2661 -14.2657 -14.2595 -14.2582 -14.2567 -14.2565 -14.2564 -14.2545
   -14.2538 -14.2538 -14.2472 -14.2464 -14.2443 -14.2435 -14.2417 -14.2365
   -14.2340 -14.2333 -14.2329 -14.2326 -14.2312 -14.2291 -14.2280 -14.2269
   -14.2231 -14.2229 -14.2224 -14.2218 -14.2152 -14.2110 -14.2095 -14.2002
   -10.4773 -10.4651 -10.4575 -10.4515 -10.4495 -10.4342 -10.4324 -10.4187
    -9.6631  -9.5610  -9.4959  -9.4625  -9.4192  -9.4121  -9.3367  -9.2983
    -9.2857  -9.2537  -9.2415  -9.2175  -9.2057  -9.1945  -9.1821  -9.1434
    -9.1180  -9.1118  -9.1033  -9.0876  -9.0508  -9.0298  -9.0241  -8.9717
    -6.9894  -6.9663  -6.9504  -6.9378  -6.9366  -6.9345  -6.9300  -6.9131
    -6.8966  -6.8622  -6.8102  -6.7825  -6.7789  -6.7755  -6.7558  -6.7533
    -5.7819  -5.6012  -5.3449  -5.3282  -5.1801  -5.1665  -4.9431  -4.8508
    -4.8429  -4.8169  -4.8132  -4.7990  -4.7926  -4.7832  -4.7703  -4.6856
    -2.7959  -2.7688  -2.7614  -2.7568  -2.7539  -2.7400  -2.7374  -2.7341
    -2.7239  -2.7188  -2.7130  -2.7099  -2.7076  -2.6985  -2.6918  -2.6760
    -0.8819  -0.8468  -0.7848  -0.7595  -0.7385  -0.6850  -0.6368  -0.5786
    -0.4331  -0.3464  -0.2763  -0.1986   0.0748   0.1272   0.2562   0.2704
     0.3203   0.3382   0.3621   0.3781   0.4130   0.4329   0.4607   0.5012
     0.5342   0.6300   0.6418   0.6948   0.7208   0.7885   0.8083   0.8298
     0.8705   0.9177   0.9548   0.9732   0.9921   1.0049   1.0268   1.0437
     1.0586   1.0758   1.0896   1.1180   1.1260   1.1462   1.1793   1.2058
     1.2217   1.2365   1.2441   1.2610   1.2733   1.2842   1.2939   1.3183
     1.3337   1.3519   1.3688   1.4227   1.4354   1.4709   1.4979   1.5493
     1.5624   1.5785   1.5906   1.6107   1.6268   1.6869   1.8495   1.9353

          k =-0.3749-0.1263 0.3873 (299755 PWs)   bands (ev):

   -17.5433 -17.4753 -17.4529 -17.4285 -17.4209 -17.4126 -17.4111 -17.3992
   -14.2951 -14.2928 -14.2910 -14.2884 -14.2804 -14.2724 -14.2701 -14.2664
   -14.2657 -14.2641 -14.2602 -14.2599 -14.2577 -14.2565 -14.2565 -14.2545
   -14.2538 -14.2527 -14.2472 -14.2465 -14.2443 -14.2441 -14.2417 -14.2372
   -14.2340 -14.2333 -14.2330 -14.2326 -14.2312 -14.2291 -14.2280 -14.2269
   -14.2230 -14.2229 -14.2224 -14.2218 -14.2152 -14.2110 -14.2095 -14.2002
   -10.4737 -10.4685 -10.4544 -10.4517 -10.4491 -10.4358 -10.4331 -10.4201
    -9.6193  -9.5616  -9.5393  -9.4794  -9.4497  -9.3958  -9.3736  -9.3291
    -9.2530  -9.2346  -9.2271  -9.2016  -9.1919  -9.1640  -9.1516  -9.1463
    -9.1277  -9.1208  -9.0974  -9.0807  -9.0694  -9.0491  -9.0207  -8.9873
    -6.9930  -6.9607  -6.9503  -6.9383  -6.9368  -6.9355  -6.9290  -6.9139
    -6.8973  -6.8644  -6.8055  -6.7806  -6.7740  -6.7728  -6.7598  -6.7583
    -5.6617  -5.4851  -5.4771  -5.3026  -5.2323  -5.0803  -5.0580  -4.9382
    -4.8364  -4.8251  -4.8047  -4.8026  -4.7949  -4.7868  -4.7822  -4.7503
    -2.7935  -2.7657  -2.7641  -2.7559  -2.7456  -2.7428  -2.7400  -2.7266
    -2.7225  -2.7195  -2.7143  -2.7099  -2.7066  -2.6985  -2.6921  -2.6848
    -0.8039  -0.7429  -0.7149  -0.6464  -0.5365  -0.4470  -0.4206  -0.3951
    -0.3386  -0.2978  -0.2673  -0.2410   0.0513   0.0852   0.1235   0.1657
     0.2151   0.2391   0.2595   0.3292   0.3963   0.4056   0.4288   0.4433
     0.5278   0.5725   0.6126   0.6570   0.6788   0.7279   0.7342   0.7969
     0.8173   0.8645   0.8906   0.9141   0.9298   0.9822   1.0084   1.0263
     1.0396   1.0504   1.0716   1.0838   1.1198   1.1462   1.1603   1.1780
     1.2222   1.2427   1.2577   1.2686   1.2841   1.2948   1.3216   1.3394
     1.3552   1.3681   1.3940   1.4213   1.4479   1.4735   1.4839   1.5214
     1.5288   1.5562   1.5772   1.5934   1.6260   1.6466   1.6904   1.7279

          k =-0.3749 0.1263-0.3873 (299755 PWs)   bands (ev):

   -17.5433 -17.4753 -17.4529 -17.4285 -17.4209 -17.4126 -17.4111 -17.3992
   -14.2951 -14.2928 -14.2910 -14.2884 -14.2804 -14.2724 -14.2701 -14.2664
   -14.2657 -14.2641 -14.2602 -14.2599 -14.2578 -14.2565 -14.2565 -14.2545
   -14.2538 -14.2527 -14.2472 -14.2465 -14.2443 -14.2441 -14.2417 -14.2372
   -14.2340 -14.2333 -14.2330 -14.2326 -14.2312 -14.2291 -14.2280 -14.2269
   -14.2230 -14.2229 -14.2224 -14.2218 -14.2152 -14.2110 -14.2095 -14.2002
   -10.4737 -10.4685 -10.4558 -10.4524 -10.4487 -10.4356 -10.4320 -10.4195
    -9.6284  -9.5632  -9.5276  -9.4759  -9.4380  -9.3932  -9.3834  -9.3446
    -9.2516  -9.2355  -9.2237  -9.2056  -9.1897  -9.1628  -9.1514  -9.1422
    -9.1350  -9.1095  -9.1019  -9.0803  -9.0731  -9.0494  -9.0187  -8.9863
    -6.9931  -6.9607  -6.9500  -6.9377  -6.9373  -6.9357  -6.9293  -6.9141
    -6.8975  -6.8643  -6.8055  -6.7805  -6.7740  -6.7728  -6.7598  -6.7582
    -5.6602  -5.4862  -5.4729  -5.3071  -5.2359  -5.0776  -5.0652  -4.9245
    -4.8379  -4.8256  -4.8108  -4.8010  -4.7931  -4.7845  -4.7810  -4.7543
    -2.7941  -2.7674  -2.7631  -2.7541  -2.7449  -2.7438  -2.7389  -2.7301
    -2.7243  -2.7162  -2.7141  -2.7118  -2.7054  -2.6981  -2.6922  -2.6843
    -0.8156  -0.7534  -0.7148  -0.6486  -0.5155  -0.4316  -0.4062  -0.3828
    -0.3549  -0.2956  -0.2603  -0.2327   0.0390   0.0684   0.1309   0.1524
     0.1922   0.2375   0.2535   0.3128   0.3929   0.4042   0.4369   0.4502
     0.5156   0.5936   0.6384   0.6594   0.6756   0.7144   0.7319   0.7906
     0.8154   0.8715   0.8916   0.9352   0.9465   0.9894   0.9959   1.0118
     1.0323   1.0363   1.0690   1.0854   1.1047   1.1565   1.1620   1.1906
     1.2221   1.2431   1.2660   1.2728   1.2828   1.2936   1.3105   1.3575
     1.3660   1.3721   1.3800   1.4234   1.4504   1.4775   1.4882   1.5134
     1.5284   1.5364   1.5583   1.5826   1.6001   1.6701   1.7029   1.7642

          k = 0.3749-0.1263-0.3873 (299755 PWs)   bands (ev):

   -17.5433 -17.4753 -17.4529 -17.4285 -17.4209 -17.4126 -17.4111 -17.3992
   -14.2951 -14.2928 -14.2910 -14.2884 -14.2804 -14.2724 -14.2701 -14.2664
   -14.2657 -14.2641 -14.2602 -14.2599 -14.2578 -14.2565 -14.2565 -14.2545
   -14.2538 -14.2527 -14.2472 -14.2465 -14.2443 -14.2441 -14.2417 -14.2372
   -14.2340 -14.2333 -14.2330 -14.2326 -14.2312 -14.2291 -14.2280 -14.2269
   -14.2230 -14.2229 -14.2224 -14.2218 -14.2152 -14.2110 -14.2095 -14.2002
   -10.4739 -10.4684 -10.4553 -10.4528 -10.4488 -10.4355 -10.4320 -10.4195
    -9.6272  -9.5649  -9.5306  -9.4714  -9.4351  -9.3927  -9.3891  -9.3433
    -9.2521  -9.2346  -9.2250  -9.2015  -9.1927  -9.1630  -9.1501  -9.1457
    -9.1299  -9.1156  -9.0972  -9.0824  -9.0723  -9.0495  -9.0187  -8.9861
    -6.9931  -6.9606  -6.9500  -6.9378  -6.9372  -6.9356  -6.9292  -6.9141
    -6.8976  -6.8643  -6.8055  -6.7806  -6.7740  -6.7727  -6.7598  -6.7582
    -5.6603  -5.4865  -5.4729  -5.3071  -5.2352  -5.0766  -5.0660  -4.9251
    -4.8378  -4.8260  -4.8106  -4.8015  -4.7931  -4.7846  -4.7813  -4.7533
    -2.7942  -2.7689  -2.7627  -2.7535  -2.7458  -2.7427  -2.7381  -2.7291
    -2.7256  -2.7187  -2.7159  -2.7092  -2.7049  -2.6964  -2.6927  -2.6843
    -0.8146  -0.7525  -0.7113  -0.6498  -0.5294  -0.4351  -0.4115  -0.3819
    -0.3420  -0.2941  -0.2521  -0.2318   0.0361   0.0702   0.1230   0.1574
     0.1907   0.2354   0.2572   0.3136   0.3931   0.3990   0.4410   0.4498
     0.5214   0.5896   0.6296   0.6464   0.6818   0.7151   0.7343   0.7917
     0.8210   0.8708   0.8948   0.9340   0.9511   0.9877   0.9977   1.0093
     1.0313   1.0469   1.0635   1.0880   1.0985   1.1523   1.1639   1.1966
     1.2190   1.2495   1.2581   1.2719   1.2839   1.2905   1.3159   1.3541
     1.3655   1.3695   1.3879   1.4153   1.4580   1.4822   1.4841   1.5149
     1.5213   1.5315   1.5643   1.5814   1.6024   1.6699   1.7017   1.7648

          k =-0.3749-0.3790 0.1291 (299736 PWs)   bands (ev):

   -17.5433 -17.4753 -17.4529 -17.4285 -17.4209 -17.4126 -17.4111 -17.3992
   -14.2979 -14.2920 -14.2908 -14.2850 -14.2810 -14.2734 -14.2684 -14.2679
   -14.2665 -14.2661 -14.2589 -14.2584 -14.2568 -14.2565 -14.2564 -14.2545
   -14.2544 -14.2538 -14.2473 -14.2464 -14.2442 -14.2437 -14.2417 -14.2369
   -14.2340 -14.2333 -14.2329 -14.2326 -14.2312 -14.2291 -14.2280 -14.2269
   -14.2231 -14.2229 -14.2224 -14.2218 -14.2152 -14.2110 -14.2095 -14.2002
   -10.4745 -10.4642 -10.4605 -10.4513 -10.4475 -10.4360 -10.4324 -10.4200
    -9.6197  -9.5568  -9.5369  -9.4692  -9.4370  -9.3994  -9.3866  -9.3213
    -9.2960  -9.2543  -9.2327  -9.2111  -9.1864  -9.1657  -9.1512  -9.1198
    -9.1151  -9.1094  -9.0924  -9.0731  -9.0678  -9.0406  -9.0293  -8.9979
    -6.9895  -6.9662  -6.9507  -6.9398  -6.9365  -6.9332  -6.9298  -6.9119
    -6.8957  -6.8619  -6.8096  -6.7805  -6.7788  -6.7780  -6.7566  -6.7540
    -5.6674  -5.4984  -5.4739  -5.3135  -5.2343  -5.0603  -5.0390  -4.9454
    -4.8427  -4.8204  -4.8135  -4.7975  -4.7927  -4.7875  -4.7781  -4.7412
    -2.7888  -2.7693  -2.7620  -2.7519  -2.7477  -2.7400  -2.7382  -2.7318
    -2.7287  -2.7187  -2.7160  -2.7126  -2.7065  -2.6984  -2.6916  -2.6846
    -0.8627  -0.7695  -0.7457  -0.6807  -0.5056  -0.4681  -0.4334  -0.3382
    -0.3215  -0.2996  -0.2597  -0.2108   0.0669   0.1334   0.1534   0.2236
     0.2726   0.2976   0.3192   0.3344   0.3462   0.3822   0.3940   0.4373
[...]
   -10.5001 -10.4815 -10.4743 -10.4720 -10.4671 -10.4518 -10.4488 -10.4431
    -9.6075  -9.5442  -9.5133  -9.4982  -9.4633  -9.4506  -9.4432  -9.3959
    -9.2499  -9.2222  -9.2078  -9.1859  -9.1727  -9.1580  -9.1502  -9.1392
    -9.1290  -9.1088  -9.0968  -9.0923  -9.0814  -9.0663  -9.0430  -9.0183
    -7.0007  -6.9684  -6.9612  -6.9558  -6.9523  -6.9480  -6.9332  -6.9276
    -6.9190  -6.8990  -6.8365  -6.8059  -6.7998  -6.7917  -6.7895  -6.7827
    -5.5560  -5.3895  -5.3777  -5.3698  -5.2177  -5.2101  -5.2017  -5.0365
    -4.8538  -4.8382  -4.8298  -4.8158  -4.8130  -4.7994  -4.7938  -4.7851
    -2.8082  -2.7903  -2.7823  -2.7691  -2.7617  -2.7579  -2.7555  -2.7524
    -2.7457  -2.7418  -2.7341  -2.7262  -2.7208  -2.7170  -2.7032  -2.7021
    -0.6294  -0.5510  -0.4911  -0.4603  -0.4224  -0.3749  -0.3522  -0.3344
    -0.2969  -0.2773  -0.2049  -0.1774  -0.0170   0.0163   0.0620   0.0750
     0.1245   0.2022   0.2073   0.2223   0.2997   0.3223   0.3315   0.3520
     0.5466   0.6087   0.6209   0.6633   0.6851   0.7038   0.7279   0.7402
     0.7614   0.8092   0.8256   0.8434   0.8809   0.8953   0.9051   0.9267
     0.9565   0.9705   0.9836   0.9962   1.0228   1.0372   1.0851   1.1166
     1.2353   1.2647   1.2765   1.2852   1.3000   1.3139   1.3282   1.3706
     1.3885   1.4133   1.4199   1.4293   1.4431   1.4528   1.4564   1.4729
     1.4993   1.5084   1.5162   1.5239   1.5388   1.5629   1.6305   1.6505

          k = 0.3750-0.3795-0.3862 (299759 PWs)   bands (ev):

   -17.5434 -17.5059 -17.4785 -17.4468 -17.4440 -17.4389 -17.4301 -17.4267
   -14.2978 -14.2935 -14.2898 -14.2859 -14.2807 -14.2778 -14.2720 -14.2676
   -14.2671 -14.2658 -14.2653 -14.2612 -14.2599 -14.2583 -14.2580 -14.2545
   -14.2522 -14.2510 -14.2505 -14.2453 -14.2438 -14.2437 -14.2415 -14.2411
   -14.2399 -14.2374 -14.2333 -14.2332 -14.2314 -14.2302 -14.2287 -14.2276
   -14.2260 -14.2239 -14.2227 -14.2220 -14.2156 -14.2109 -14.2099 -14.2012
   -10.5001 -10.4815 -10.4737 -10.4724 -10.4673 -10.4516 -10.4488 -10.4432
    -9.6075  -9.5449  -9.5147  -9.4953  -9.4607  -9.4504  -9.4477  -9.3947
    -9.2503  -9.2235  -9.2062  -9.1874  -9.1707  -9.1594  -9.1473  -9.1404
    -9.1290  -9.1092  -9.0988  -9.0929  -9.0810  -9.0641  -9.0435  -9.0183
    -7.0007  -6.9684  -6.9612  -6.9558  -6.9523  -6.9481  -6.9327  -6.9274
    -6.9200  -6.8986  -6.8365  -6.8059  -6.7997  -6.7916  -6.7895  -6.7828
    -5.5563  -5.3898  -5.3770  -5.3695  -5.2179  -5.2083  -5.2037  -5.0363
    -4.8538  -4.8383  -4.8297  -4.8158  -4.8130  -4.7995  -4.7938  -4.7851
    -2.8082  -2.7910  -2.7827  -2.7692  -2.7613  -2.7595  -2.7548  -2.7523
    -2.7445  -2.7424  -2.7342  -2.7248  -2.7211  -2.7156  -2.7044  -2.7024
    -0.6230  -0.5575  -0.4879  -0.4651  -0.4257  -0.3733  -0.3481  -0.3321
    -0.2959  -0.2868  -0.2042  -0.1795  -0.0061   0.0204   0.0581   0.0767
     0.1252   0.1974   0.2142   0.2189   0.3040   0.3183   0.3246   0.3524
     0.5480   0.6058   0.6234   0.6634   0.6856   0.7000   0.7267   0.7393
     0.7637   0.8012   0.8303   0.8455   0.8823   0.8992   0.9102   0.9257
     0.9510   0.9678   0.9851   0.9981   1.0231   1.0368   1.0849   1.1180
     1.2328   1.2644   1.2759   1.2876   1.2977   1.3142   1.3374   1.3619
     1.3869   1.4143   1.4232   1.4296   1.4397   1.4493   1.4532   1.4757
     1.5013   1.5098   1.5157   1.5276   1.5400   1.5620   1.6288   1.6505

     highest occupied level (ev):     2.0777

!    total energy              =  -16491.15585299 Ry
     Harris-Foulkes estimate   =  -16491.15585299 Ry
     estimated scf accuracy    <          8.9E-10 Ry

     total all-electron energy =   -677247.825117 Ry

     The total energy is the sum of the following terms:

     one-electron contribution =    -827.75364198 Ry
     hartree contribution      =     599.70050095 Ry
     xc contribution           =    -755.73073361 Ry
     ewald contribution        =   -1152.54199426 Ry
     DFT-D3 Dispersion         =      -0.62506435 Ry
     one-center paw contrib.   =  -14354.20491974 Ry

     convergence has been achieved in   8 iterations

     Forces acting on atoms (cartesian axes, Ry/au):

     atom    1 type  1   force =     0.00003105    0.00024406   -0.00005470
     atom    2 type  1   force =    -0.00013870    0.00050669   -0.00009847
     atom    3 type  1   force =     0.00008758   -0.00002763   -0.00006526
     atom    4 type  1   force =     0.00016297   -0.00019656   -0.00017243
     atom    5 type  1   force =     0.00024604   -0.00003854   -0.00020735
     atom    6 type  1   force =     0.00029597   -0.00011311   -0.00001367
     atom    7 type  1   force =     0.00002875    0.00009005   -0.00008887
     atom    8 type  1   force =     0.00024911    0.00032087    0.00000184
     atom    9 type  2   force =    -0.00007520    0.00019331   -0.00024445
     atom   10 type  2   force =    -0.00008899   -0.00008817    0.00014463
     atom   11 type  2   force =     0.00028011   -0.00050004    0.00009267
     atom   12 type  2   force =    -0.00013170    0.00016651    0.00033199
     atom   13 type  2   force =    -0.00009443    0.00013747    0.00003508
     atom   14 type  2   force =    -0.00031339    0.00035860   -0.00005045
     atom   15 type  2   force =    -0.00056812    0.00038520    0.00021780
     atom   16 type  2   force =     0.00003588   -0.00001589   -0.00011569
     atom   17 type  2   force =    -0.00028637    0.00008051    0.00020862
     atom   18 type  2   force =     0.00034376    0.00008946   -0.00000268
     atom   19 type  2   force =    -0.00006890   -0.00004042    0.00019339
     atom   20 type  2   force =     0.00030799   -0.00037814   -0.00016950
     atom   21 type  2   force =     0.00001388    0.00012906    0.00017082
     atom   22 type  2   force =     0.00008963    0.00002281   -0.00017456
     atom   23 type  2   force =    -0.00045767    0.00043658    0.00025073
     atom   24 type  2   force =    -0.00005899    0.00024854    0.00013146
     atom   25 type  2   force =     0.00014381   -0.00021515    0.00006960
     atom   26 type  2   force =     0.00026315   -0.00048981   -0.00004399
     atom   27 type  2   force =     0.00042252    0.00029460    0.00007742
     atom   28 type  2   force =     0.00021390   -0.00007520    0.00013860
     atom   29 type  2   force =    -0.00005757   -0.00015297   -0.00009734
     atom   30 type  2   force =    -0.00063884    0.00013943    0.00028927
     atom   31 type  2   force =    -0.00006868   -0.00002939    0.00030119
     atom   32 type  2   force =    -0.00058301    0.00048088    0.00023412
     atom   33 type  3   force =     0.00010292    0.00005857    0.00031960
     atom   34 type  3   force =     0.00013446   -0.00037182   -0.00010640
     atom   35 type  3   force =     0.00008188    0.00040123   -0.00041848
     atom   36 type  3   force =     0.00042919   -0.00010259   -0.00030811
     atom   37 type  3   force =     0.00023856   -0.00015087   -0.00003341
     atom   38 type  3   force =     0.00032386   -0.00023806   -0.00008766
     atom   39 type  3   force =     0.00020342   -0.00019844   -0.00034968
     atom   40 type  3   force =     0.00020937    0.00008474   -0.00020629
     atom   41 type  4   force =     0.00038288   -0.00007855    0.00009809
     atom   42 type  4   force =    -0.00001484   -0.00004664   -0.00007563
     atom   43 type  4   force =    -0.00000994    0.00024601    0.00012813
     atom   44 type  4   force =     0.00029074   -0.00018765   -0.00008823
     atom   45 type  4   force =     0.00008279    0.00016319   -0.00016022
     atom   46 type  4   force =     0.00003108    0.00003886   -0.00015779
     atom   47 type  4   force =     0.00003329   -0.00006870   -0.00013642
     atom   48 type  4   force =     0.00014726   -0.00027167   -0.00015429
     atom   49 type  5   force =     0.00028678   -0.00028282    0.00014844
     atom   50 type  5   force =     0.00005986   -0.00013282   -0.00037274
     atom   51 type  5   force =    -0.00001033   -0.00028744   -0.00020855
     atom   52 type  5   force =    -0.00054403    0.00011386   -0.00017701
     atom   53 type  5   force =    -0.00019230    0.00011506    0.00026581
     atom   54 type  5   force =    -0.00000434    0.00023641   -0.00004213
     atom   55 type  5   force =    -0.00009784   -0.00002380   -0.00014252
     atom   56 type  5   force =     0.00021526    0.00019068    0.00003054
     atom   57 type  5   force =    -0.00009335    0.00004579    0.00012560
     atom   58 type  5   force =     0.00010870    0.00053826    0.00058448
     atom   59 type  5   force =     0.00009319   -0.00029871    0.00013163
     atom   60 type  5   force =    -0.00012754    0.00015409   -0.00057286
     atom   61 type  5   force =     0.00031560   -0.00075316    0.00029752
     atom   62 type  5   force =    -0.00026177    0.00026412    0.00020604
     atom   63 type  5   force =    -0.00006133    0.00004776   -0.00076611
     atom   64 type  5   force =     0.00005258    0.00049155   -0.00008776
     atom   65 type  5   force =    -0.00037240   -0.00081346    0.00023229
     atom   66 type  5   force =     0.00012110    0.00036847    0.00026168
     atom   67 type  5   force =    -0.00066141   -0.00028238    0.00027044
     atom   68 type  5   force =     0.00017554   -0.00014090   -0.00055044
     atom   69 type  5   force =     0.00034688   -0.00047371    0.00014524
     atom   70 type  5   force =    -0.00033765    0.00050458    0.00015398
     atom   71 type  5   force =    -0.00000187   -0.00017260   -0.00025647
     atom   72 type  5   force =    -0.00071313    0.00013884    0.00010253
     atom   73 type  5   force =     0.00001592   -0.00012876    0.00018316
     atom   74 type  5   force =     0.00014604   -0.00018901    0.00001139
     atom   75 type  5   force =     0.00007939   -0.00020335   -0.00029104
     atom   76 type  5   force =     0.00011009    0.00043582    0.00032711
     atom   77 type  5   force =     0.00004703   -0.00054928    0.00004603
     atom   78 type  5   force =    -0.00014577    0.00019541   -0.00044596
     atom   79 type  5   force =    -0.00025583   -0.00061705    0.00023870
     atom   80 type  5   force =     0.00032796   -0.00023397   -0.00012662
     atom   81 type  5   force =     0.00025781   -0.00014941    0.00011149
     atom   82 type  5   force =    -0.00011931    0.00034453   -0.00049446
     atom   83 type  5   force =    -0.00057738    0.00009819    0.00051502
     atom   84 type  5   force =    -0.00012149   -0.00027229    0.00013938
     atom   85 type  5   force =    -0.00038029   -0.00061717   -0.00005127
     atom   86 type  5   force =     0.00032086   -0.00009706   -0.00014428
     atom   87 type  5   force =     0.00037363    0.00004386    0.00019343
     atom   88 type  5   force =     0.00005790    0.00051291   -0.00049053
     atom   89 type  5   force =    -0.00059555    0.00000646    0.00049012
     atom   90 type  5   force =     0.00025957   -0.00027040    0.00026103
     atom   91 type  5   force =    -0.00003893   -0.00010835   -0.00015114
     atom   92 type  5   force =     0.00003019    0.00038101    0.00011689
     atom   93 type  5   force =    -0.00027136   -0.00008504    0.00021615
     atom   94 type  5   force =    -0.00001264    0.00082645    0.00020923
     atom   95 type  5   force =     0.00033236   -0.00044766    0.00011875
     atom   96 type  5   force =    -0.00038889    0.00033527   -0.00031523

     Total force =     0.004675     Total SCF correction =     0.000078


     Computing stress (Cartesian axis) and pressure

          total   stress  (Ry/bohr**3)                   (kbar)     P=   -0.02
  -0.00000032   0.00000592   0.00000167         -0.05      0.87      0.25
   0.00000592   0.00000117  -0.00000049          0.87      0.17     -0.07
   0.00000167  -0.00000049  -0.00000123          0.25     -0.07     -0.18


     number of scf cycles    =  20
     number of bfgs steps    =  19

     enthalpy old            =  -16491.1558108537 Ry
     enthalpy new            =  -16491.1558529909 Ry

     CASE: enthalpy_new < enthalpy_old

     new trust radius        =       0.0088146990 bohr
     new conv_thr            =       0.0000000010 Ry

     new unit-cell volume =  13517.92507 a.u.^3 (  2003.14980 Ang^3 )
     density =      4.11652 g/cm^3

CELL_PARAMETERS (alat= 24.15259000)
   0.999923547   0.000000000   0.000000000
   0.000000000   0.988430085   0.000000000
   0.000000000   0.000000000   0.970747221

ATOMIC_POSITIONS (crystal)
Pb       0.000876607   0.001366707  -0.000165899
Pb       0.000176268   0.002058737   0.501166971
Pb       0.002535064   0.503965971   0.000671975
Pb       0.000915762   0.505035060   0.502426121
Pb       0.501794990   0.001966993   0.001833928
Pb       0.501150584   0.002354037   0.501771388
Pb       0.505302497   0.502547776   0.003269596
Pb       0.504043696   0.503625443   0.501874033
I        0.251973865   0.013190691  -0.033567489
I        0.030057979   0.252956881   0.039645217
I        0.041882977  -0.044982907   0.249967988
I        0.251602485   0.024152020   0.532862596
I        0.020808072   0.254845296   0.459584251
I       -0.044269280   0.048607378   0.750316440
I        0.254946537   0.534270185   0.027723920
I        0.010663424   0.752577029  -0.050906860
I       -0.034698498   0.548491919   0.250815672
I        0.253442209   0.529149240   0.477904730
I        0.020961821   0.754964561   0.544134070
I        0.034559368   0.449961211   0.751260032
I        0.751674043   0.031280412   0.034612435
I        0.510312976   0.252495423  -0.039480612
I        0.459632593   0.047966373   0.251202401
I        0.751269736   0.022771973   0.464710471
I        0.519312666   0.253400948   0.540122169
I        0.537416798  -0.046220564   0.751336765
I        0.754261074   0.512703663  -0.032272707
I        0.531829206   0.752558266   0.041280328
I        0.540550641   0.456079873   0.252430437
I        0.753694640   0.524073438   0.533525949
I        0.522869268   0.753349542   0.458826979
I        0.471668160   0.539988819   0.752347732
C        0.283349996   0.290539422   0.250102208
C        0.281819859   0.289113744   0.748231429
C        0.289433416   0.791325443   0.249400766
C        0.276009511   0.775832103   0.743146478
C        0.787161461   0.291421793   0.248749165
C        0.781691093   0.286920780   0.747637151
C        0.790465042   0.788383750   0.248952243
C        0.783027870   0.792676145   0.744567760
N        0.212585246   0.196675774   0.253692542
N        0.198754373   0.206196876   0.753545963
N        0.201463663   0.713622528   0.254509374
N        0.216677569   0.674476150   0.753951272
N        0.698413346   0.214750373   0.253241580
N        0.704606225   0.198318902   0.752996959
N        0.716186293   0.697299049   0.253695673
N        0.701214900   0.708898355   0.754889851
H        0.163592781   0.195236654   0.186479025
H        0.163973237   0.199468803   0.321169558
H        0.255705556   0.127231644   0.255953800
H        0.332924509   0.284868242   0.178473663
H        0.332251811   0.290662166   0.322411731
H        0.235693418   0.362380190   0.246860901
H        0.202297153   0.156349563   0.686613447
H        0.124972217   0.239907975   0.756156946
H        0.207496857   0.158059941   0.821237100
H        0.269454628   0.336568701   0.675553662
H        0.358246418   0.250382926   0.745052146
H        0.276292626   0.338989977   0.820087752
H        0.201833718   0.664090371   0.187382211
H        0.130203170   0.752920791   0.256977211
H        0.207042914   0.665518281   0.322536716
H        0.279904968   0.839701665   0.176950159
H        0.363798027   0.748638237   0.246344229
H        0.286431705   0.841596740   0.321082752
H        0.218970938   0.631116394   0.683024590
H        0.138960335   0.688612816   0.773152507
H        0.247029639   0.627401902   0.814911681
H        0.242005857   0.821519713   0.676903389
H        0.357891041   0.757201514   0.726083925
H        0.269792286   0.819981790   0.818759083
H        0.699099259   0.164921103   0.186257230
H        0.627437754   0.254436046   0.255384029
H        0.703558224   0.166167482   0.321028211
H        0.778561190   0.340121517   0.176359418
H        0.860837135   0.247553947   0.245765516
H        0.784807754   0.341278839   0.320768692
H        0.655146927   0.199702177   0.686148630
H        0.656760101   0.204564943   0.820788811
H        0.742503256   0.125962331   0.755321763
H        0.829155572   0.277302544   0.674968199
H        0.832009528   0.283852973   0.818803905
H        0.739180878   0.361990054   0.744957490
H        0.666743037   0.697714517   0.186795122
H        0.668074827   0.701792337   0.321437599
H        0.756395751   0.626195631   0.255529778
H        0.838504366   0.780376595   0.176468098
H        0.840514590   0.786812205   0.320438651
H        0.745530848   0.862017748   0.246110385
H        0.702758847   0.657949126   0.688839472
H        0.627259563   0.742028444   0.759655324
H        0.712707844   0.662127442   0.823077220
H        0.767218283   0.838581159   0.671578186
H        0.859743844   0.754837688   0.738943445
H        0.779732723   0.843888571   0.815558194



     Writing output data file MAPbI_vcrelax_PAW8.save/
     NEW-OLD atomic charge density approx. for the potential
     extrapolated charge  400.03518, renormalised to  400.00000

     total cpu time spent up to now is   494343.8 secs

     Self-consistent Calculation

     iteration #  1     ecut=   120.00 Ry     beta= 0.70
     Davidson diagonalization with overlap
     ethr =  1.00E-06,  avg # of iterations =  3.0

     Threshold (ethr) on eigenvalues was too large:
     Diagonalizing with lowered threshold

     Davidson diagonalization with overlap
     ethr =  3.47E-08,  avg # of iterations =  2.2

     total cpu time spent up to now is   498077.9 secs

     total energy              =  -16491.15583573 Ry
     Harris-Foulkes estimate   =  -16491.10228892 Ry
     estimated scf accuracy    <       0.00014391 Ry

     iteration #  2     ecut=   120.00 Ry     beta= 0.70
     Davidson diagonalization with overlap
     ethr =  3.60E-08,  avg # of iterations =  2.0

     total cpu time spent up to now is   499983.7 secs

     total energy              =  -16491.15588371 Ry
     Harris-Foulkes estimate   =  -16491.15588457 Ry
     estimated scf accuracy    <       0.00003600 Ry

     iteration #  3     ecut=   120.00 Ry     beta= 0.70
     Davidson diagonalization with overlap
     ethr =  9.00E-09,  avg # of iterations =  3.0

     total cpu time spent up to now is   501794.9 secs

     total energy              =  -16491.15589398 Ry
     Harris-Foulkes estimate   =  -16491.15589125 Ry
     estimated scf accuracy    <       0.00001038 Ry

     iteration #  4     ecut=   120.00 Ry     beta= 0.70
     Davidson diagonalization with overlap
     ethr =  2.59E-09,  avg # of iterations =  2.0

     total cpu time spent up to now is   503201.6 secs

     total energy              =  -16491.15589741 Ry
     Harris-Foulkes estimate   =  -16491.15589491 Ry
     estimated scf accuracy    <       0.00000524 Ry

     iteration #  5     ecut=   120.00 Ry     beta= 0.70
     Davidson diagonalization with overlap
     ethr =  1.31E-09,  avg # of iterations =  2.0

     total cpu time spent up to now is   504629.4 secs

     total energy              =  -16491.15589782 Ry
     Harris-Foulkes estimate   =  -16491.15589781 Ry
     estimated scf accuracy    <       0.00000078 Ry

     iteration #  6     ecut=   120.00 Ry     beta= 0.70
     Davidson diagonalization with overlap
     ethr =  1.95E-10,  avg # of iterations =  2.3

     total cpu time spent up to now is   506415.1 secs

     total energy              =  -16491.15589792 Ry
     Harris-Foulkes estimate   =  -16491.15589793 Ry
     estimated scf accuracy    <       0.00000001 Ry

     iteration #  7     ecut=   120.00 Ry     beta= 0.70
     Davidson diagonalization with overlap
