
     Program PWSCF v.6.4 starts on 10Jan2020 at 23:15:11 

     This program is part of the open-source Quantum ESPRESSO suite
     for quantum simulation of materials; please cite
         "P. Giannozzi et al., J. Phys.:Condens. Matter 21 395502 (2009);
         "P. Giannozzi et al., J. Phys.:Condens. Matter 29 465901 (2017);
          URL http://www.quantum-espresso.org", 
     in publications or presentations arising from this work. More details at
     http://www.quantum-espresso.org/quote

     Parallel version (MPI), running on    32 processors

     MPI processes distributed on     1 nodes
     R & G space division:  proc/nbgrp/npool/nimage =      32
     Waiting for input...
     Reading input from standard input

     Current dimensions of program PWSCF are:
     Max number of different atomic species (ntypx) = 10
     Max number of k-points (npk) =  40000
     Max angular momentum in pseudopotentials (lmaxx) =  3
               file Pb.pbe-dn-kjpaw_psl.1.0.0.UPF: wavefunction(s)  6S 6P 5D renormalized
               file I.pbe-n-kjpaw_psl.1.0.0.UPF: wavefunction(s)  5S renormalized
               file C.pbe-n-kjpaw_psl.1.0.0.UPF: wavefunction(s)  2S 2P renormalized
               file N.pbe-n-kjpaw_psl.1.0.0.UPF: wavefunction(s)  2S renormalized
               file H.pbe-kjpaw_psl.1.0.0.UPF: wavefunction(s)  1S renormalized

     --------------------------------------------
     Parameters for DFT-D3 Dispersion Correction:
     --------------------------------------------
       Reference C6 values for interpolation: 

         atom   Coordination number   C6
         H          0.912             6.05
         H          0.000            15.18
         C          0.000            98.23
         C          0.987            86.49
         C          1.998            58.72
         C          2.999            51.56
         C          3.984            36.41
         N          0.000            50.54
         N          0.994            44.25
         N          2.014            39.35
         N          2.990            31.16
         I          0.000           703.93
         I          0.997           717.00
         Pb         0.000          1477.63
         Pb         0.938          1266.00
         Pb         1.936          1088.91
         Pb         2.908          1048.37
         Pb         3.910           910.57

       Values used:

         atom   Coordination number  R0_AB[au]  C6      C8
         Pb         5.124            4.041    910.57 144158.14
         Pb         4.583            4.041    910.58 144159.81
         Pb         4.685            4.041    910.58 144158.86
         Pb         4.916            4.041    910.57 144158.23
         Pb         4.806            4.041    910.57 144158.40
         Pb         4.783            4.041    910.57 144158.46
         Pb         4.871            4.041    910.57 144158.29
         Pb         4.935            4.041    910.57 144158.22
         I          1.884            3.532    717.00  65855.99
         I          2.023            3.532    717.00  65856.00
         I          1.861            3.532    717.00  65855.98
         I          1.984            3.532    717.00  65856.00
         I          2.000            3.532    717.00  65856.00
         I          1.957            3.532    717.00  65856.00
         I          1.850            3.532    717.00  65855.98
         I          1.779            3.532    717.00  65855.96
         I          2.026            3.532    717.00  65856.00
         I          2.058            3.532    717.00  65856.00
         I          1.755            3.532    717.00  65855.95
         I          1.806            3.532    717.00  65855.97
         I          1.950            3.532    717.00  65856.00
         I          1.984            3.532    717.00  65856.00
         I          1.739            3.532    717.00  65855.95
         I          1.758            3.532    717.00  65855.95
         I          1.790            3.532    717.00  65855.97
         I          2.059            3.532    717.00  65856.00
         I          1.923            3.532    717.00  65855.99
         I          1.866            3.532    717.00  65855.98
         I          2.004            3.532    717.00  65856.00
         I          1.730            3.532    717.00  65855.94
         I          1.982            3.532    717.00  65856.00
         I          1.850            3.532    717.00  65855.98
         C          3.980            2.750     36.69   1061.15
         C          3.997            2.750     36.66   1060.16
         C          3.893            2.750     36.96   1068.82
         C          4.016            2.750     36.62   1059.20
         C          4.066            2.750     36.56   1057.27
         C          4.040            2.750     36.59   1058.17
         C          4.060            2.750     36.56   1057.45
         C          3.860            2.750     37.11   1073.25
         N          3.927            2.478     31.16    687.49
         N          3.969            2.478     31.16    687.49
         N          4.003            2.478     31.16    687.49
         N          3.684            2.478     31.16    687.51
         N          4.021            2.478     31.16    687.49
         N          3.990            2.478     31.16    687.49
         N          4.003            2.478     31.16    687.49
         N          3.765            2.478     31.16    687.50
         H          1.023            2.062      6.16     74.48
         H          0.919            2.062      6.28     75.93
         H          1.021            2.062      6.16     74.51
         H          0.952            2.062      6.23     75.36
         H          1.014            2.062      6.17     74.57
         H          1.014            2.062      6.17     74.58
         H          0.956            2.062      6.23     75.30
         H          1.011            2.062      6.17     74.60
         H          1.016            2.062      6.17     74.55
         H          1.018            2.062      6.17     74.53
         H          1.013            2.062      6.17     74.58
         H          0.969            2.062      6.21     75.10
         H          1.020            2.062      6.16     74.51
         H          1.015            2.062      6.17     74.56
         H          1.022            2.062      6.16     74.49
         H          1.014            2.062      6.17     74.58
         H          1.011            2.062      6.17     74.60
         H          0.889            2.062      6.34     76.59
         H          0.809            2.062      6.55     79.15
         H          1.018            2.062      6.17     74.53
         H          0.874            2.062      6.37     76.98
         H          1.015            2.062      6.17     74.56
         H          1.017            2.062      6.17     74.54
         H          0.990            2.062      6.19     74.83
         H          1.004            2.062      6.18     74.68
         H          1.018            2.062      6.17     74.53
         H          1.014            2.062      6.17     74.57
         H          1.017            2.062      6.17     74.54
         H          1.016            2.062      6.17     74.55
         H          1.022            2.062      6.16     74.49
         H          1.023            2.062      6.16     74.49
         H          1.022            2.062      6.16     74.49
         H          0.977            2.062      6.20     75.00
         H          1.005            2.062      6.18     74.67
         H          1.013            2.062      6.17     74.58
         H          1.009            2.062      6.17     74.63
         H          1.030            2.062      6.16     74.42
         H          1.036            2.062      6.15     74.37
         H          0.973            2.062      6.21     75.06
         H          1.016            2.062      6.17     74.55
         H          0.998            2.062      6.18     74.75
         H          1.016            2.062      6.17     74.55
         H          1.017            2.062      6.17     74.54
         H          0.886            2.062      6.34     76.66
         H          0.986            2.062      6.19     74.88
         H          0.943            2.062      6.25     75.51
         H          1.015            2.062      6.17     74.56
         H          1.007            2.062      6.18     74.65

         Molecular C6 ( Ry / a.u.^6 ) =   1197494.87


     Subspace diagonalization in iterative solution of the eigenvalue problem:
     a serial algorithm will be used


     Parallelization info
     --------------------
     sticks:   dense  smooth     PW     G-vecs:    dense   smooth      PW
     Min         697     697    179                78182    78182   10234
     Max         699     699    181                78185    78185   10236
     Sum       22309   22309   5753              2501869  2501869  327517



     bravais-lattice index     =            1
     lattice parameter (alat)  =      24.1526  a.u.
     unit-cell volume          =   14089.3555 (a.u.)^3
     number of atoms/cell      =           96
     number of atomic types    =            5
     number of electrons       =       400.00
     number of Kohn-Sham states=          200
     kinetic-energy cutoff     =     120.0000  Ry
     charge density cutoff     =     480.0000  Ry
     convergence threshold     =      1.0E-07
     mixing beta               =       0.7000
     number of iterations used =            8  plain     mixing
     Exchange-correlation      = SLA PW PBX PBC ( 1  4  3  4 0 0)
     nstep                     =          150


     celldm(1)=  24.152590  celldm(2)=   0.000000  celldm(3)=   0.000000
     celldm(4)=   0.000000  celldm(5)=   0.000000  celldm(6)=   0.000000

     crystal axes: (cart. coord. in units of alat)
               a(1) = (   1.000000   0.000000   0.000000 )  
               a(2) = (   0.000000   1.000000   0.000000 )  
               a(3) = (   0.000000   0.000000   1.000000 )  

     reciprocal axes: (cart. coord. in units 2 pi/alat)
               b(1) = (  1.000000  0.000000  0.000000 )  
               b(2) = (  0.000000  1.000000  0.000000 )  
               b(3) = (  0.000000  0.000000  1.000000 )  


     PseudoPot. # 1 for Pb read from file:
     ../Pseudopotential/Pb.pbe-dn-kjpaw_psl.1.0.0.UPF
     MD5 check sum: 684fc8fbce61a260853528575e4d9ab7
     Pseudo is Projector augmented-wave + core cor, Zval = 14.0
     Generated using "atomic" code by A. Dal Corso v.6.3
     Shape of augmentation charge: PSQ
     Using radial grid of 1281 points,  6 beta functions with: 
                l(1) =   0
                l(2) =   0
                l(3) =   1
                l(4) =   1
                l(5) =   2
                l(6) =   2
     Q(r) pseudized with 0 coefficients 


     PseudoPot. # 2 for I  read from file:
     ../Pseudopotential/I.pbe-n-kjpaw_psl.1.0.0.UPF
     MD5 check sum: cd3d296c3308a581e1559a0c8a554cb5
     Pseudo is Projector augmented-wave + core cor, Zval =  7.0
     Generated using "atomic" code by A. Dal Corso v.6.3
     Shape of augmentation charge: PSQ
     Using radial grid of 1247 points,  6 beta functions with: 
                l(1) =   0
                l(2) =   0
                l(3) =   1
                l(4) =   1
                l(5) =   2
                l(6) =   2
     Q(r) pseudized with 0 coefficients 


     PseudoPot. # 3 for C  read from file:
     ../Pseudopotential/C.pbe-n-kjpaw_psl.1.0.0.UPF
     MD5 check sum: 5f16ad9a65e90284d1d834d4ab3b0f7d
     Pseudo is Projector augmented-wave + core cor, Zval =  4.0
     Generated using "atomic" code by A. Dal Corso v.6.3
     Shape of augmentation charge: PSQ
     Using radial grid of 1073 points,  4 beta functions with: 
                l(1) =   0
                l(2) =   0
                l(3) =   1
                l(4) =   1
     Q(r) pseudized with 0 coefficients 


     PseudoPot. # 4 for N  read from file:
     ../Pseudopotential/N.pbe-n-kjpaw_psl.1.0.0.UPF
     MD5 check sum: 14c48229446f9f2d411169a3abcbc3fa
     Pseudo is Projector augmented-wave + core cor, Zval =  5.0
     Generated using "atomic" code by A. Dal Corso v.6.3
     Shape of augmentation charge: PSQ
     Using radial grid of 1085 points,  4 beta functions with: 
                l(1) =   0
                l(2) =   0
                l(3) =   1
                l(4) =   1
     Q(r) pseudized with 0 coefficients 


     PseudoPot. # 5 for H  read from file:
     ../Pseudopotential/H.pbe-kjpaw_psl.1.0.0.UPF
     MD5 check sum: d81a744832360e4a8af0b0b5b123bc2a
     Pseudo is Projector augmented-wave, Zval =  1.0
     Generated using "atomic" code by A. Dal Corso v.6.3MaX
     Shape of augmentation charge: PSQ
     Using radial grid of  929 points,  2 beta functions with: 
                l(1) =   0
                l(2) =   0
     Q(r) pseudized with 0 coefficients 


     atomic species   valence    mass     pseudopotential
        Pb            14.00   207.97600     Pb( 1.00)
        I              7.00   126.90400     I ( 1.00)
        C              4.00    12.00000     C ( 1.00)
        N              5.00    14.00300     N ( 1.00)
        H              1.00     1.00700     H ( 1.00)

     No symmetry found



   Cartesian axes

     site n.     atom                  positions (alat units)
         1           Pb  tau(   1) = (   0.0045790   0.0030850  -0.0053510  )
         2           Pb  tau(   2) = (   0.0044280   0.0033930   0.4999240  )
         3           Pb  tau(   3) = (   0.0011940   0.4921820   0.0051520  )
         4           Pb  tau(   4) = (   0.0079700   0.4903930   0.4955130  )
         5           Pb  tau(   5) = (   0.5057340  -0.0032920  -0.0064730  )
         6           Pb  tau(   6) = (   0.4933000  -0.0054460   0.5073590  )
         7           Pb  tau(   7) = (   0.5046840   0.4912410   0.0014760  )
         8           Pb  tau(   8) = (   0.4936130   0.5043450   0.4913470  )
         9           I   tau(   9) = (   0.2447730  -0.0007170  -0.0037630  )
        10           I   tau(  10) = (  -0.0012040   0.2498070   0.0083990  )
        11           I   tau(  11) = (  -0.0040800   0.0035730   0.2497430  )
        12           I   tau(  12) = (   0.2572340  -0.0029610   0.5083870  )
        13           I   tau(  13) = (   0.0061550   0.2564000   0.5053080  )
        14           I   tau(  14) = (  -0.0050340   0.0013110   0.7563090  )
        15           I   tau(  15) = (   0.2475190   0.5087240   0.0048640  )
        16           I   tau(  16) = (  -0.0029420   0.7579620  -0.0065480  )
        17           I   tau(  17) = (   0.0093340   0.4907530   0.2533540  )
        18           I   tau(  18) = (   0.2451490   0.5074580   0.5030290  )
        19           I   tau(  19) = (   0.0013430   0.7416800   0.5032470  )
        20           I   tau(  20) = (  -0.0081980   0.5088380   0.7502020  )
        21           I   tau(  21) = (   0.7555950   0.0079910   0.0085260  )
        22           I   tau(  22) = (   0.5025810   0.2424220  -0.0047960  )
        23           I   tau(  23) = (   0.5037480  -0.0007180   0.2528540  )
        24           I   tau(  24) = (   0.7501850   0.0065800   0.4998670  )
        25           I   tau(  25) = (   0.4940930   0.2598890   0.5097260  )
        26           I   tau(  26) = (   0.4903500   0.0089120   0.7579400  )
        27           I   tau(  27) = (   0.7450120   0.5085720  -0.0067280  )
        28           I   tau(  28) = (   0.4945770   0.7456980  -0.0018910  )
        29           I   tau(  29) = (   0.5096230   0.5031220   0.2429990  )
        30           I   tau(  30) = (   0.7416640   0.4957490   0.5007500  )
        31           I   tau(  31) = (   0.5020440   0.7565560   0.5059360  )
        32           I   tau(  32) = (   0.4972900   0.4977230   0.7454820  )
        33           C   tau(  33) = (   0.2904080   0.2835530   0.2561540  )
        34           C   tau(  34) = (   0.2954690   0.2931540   0.7476580  )
        35           C   tau(  35) = (   0.2985510   0.7790870   0.2400760  )
        36           C   tau(  36) = (   0.2983400   0.7806100   0.7567270  )
        37           C   tau(  37) = (   0.7887310   0.2855290   0.2518640  )
        38           C   tau(  38) = (   0.7839530   0.2853090   0.7536430  )
        39           C   tau(  39) = (   0.7796670   0.7798260   0.2436310  )
        40           C   tau(  40) = (   0.7954270   0.7921800   0.7584200  )
        41           N   tau(  41) = (   0.2049730   0.1965940   0.2487960  )
        42           N   tau(  42) = (   0.2092430   0.2136670   0.7517350  )
        43           N   tau(  43) = (   0.2000500   0.7003460   0.2573320  )
        44           N   tau(  44) = (   0.2008160   0.7148080   0.7571580  )
        45           N   tau(  45) = (   0.7077700   0.2157820   0.2471040  )
        46           N   tau(  46) = (   0.7018340   0.2017510   0.7423520  )
        47           N   tau(  47) = (   0.7072340   0.7135410   0.2448390  )
        48           N   tau(  48) = (   0.6996570   0.6980930   0.7414080  )
        49           H   tau(  49) = (   0.1961710   0.1918630   0.1753230  )
        50           H   tau(  50) = (   0.1358090   0.2375520   0.2986670  )
        51           H   tau(  51) = (   0.2335990   0.1445000   0.2970940  )
        52           H   tau(  52) = (   0.3086010   0.3163270   0.1682750  )
        53           H   tau(  53) = (   0.3525030   0.2685400   0.2967430  )
        54           H   tau(  54) = (   0.2622030   0.3487510   0.2793820  )
        55           H   tau(  55) = (   0.1807320   0.1797820   0.6709960  )
        56           H   tau(  56) = (   0.1375360   0.2301680   0.7832880  )
        57           H   tau(  57) = (   0.2358840   0.1481580   0.7873820  )
        58           H   tau(  58) = (   0.3090810   0.3015710   0.6658350  )
        59           H   tau(  59) = (   0.3644930   0.2678500   0.7882070  )
        60           H   tau(  60) = (   0.2509380   0.3591990   0.7977800  )
        61           H   tau(  61) = (   0.1863770   0.6879050   0.1798370  )
        62           H   tau(  62) = (   0.1355070   0.7258580   0.2831900  )
        63           H   tau(  63) = (   0.2373660   0.6446540   0.2941230  )
        64           H   tau(  64) = (   0.3086900   0.8173660   0.1700830  )
        65           H   tau(  65) = (   0.3646550   0.7599800   0.2818110  )
        66           H   tau(  66) = (   0.2680610   0.8582410   0.2921050  )
        67           H   tau(  67) = (   0.1878790   0.6845460   0.6634140  )
        68           H   tau(  68) = (   0.1384220   0.7416810   0.7947300  )
        69           H   tau(  69) = (   0.2399110   0.6304880   0.7841140  )
        70           H   tau(  70) = (   0.3125060   0.8102580   0.6812160  )
        71           H   tau(  71) = (   0.3543910   0.7541800   0.7810610  )
        72           H   tau(  72) = (   0.2608710   0.8541190   0.7972010  )
        73           H   tau(  73) = (   0.6843410   0.1874140   0.1691620  )
        74           H   tau(  74) = (   0.6458710   0.2255370   0.2907370  )
        75           H   tau(  75) = (   0.7429180   0.1461250   0.2814010  )
        76           H   tau(  76) = (   0.8077180   0.3105280   0.1760740  )
        77           H   tau(  77) = (   0.8571760   0.2667700   0.2803060  )
        78           H   tau(  78) = (   0.7674520   0.3465020   0.2897720  )
        79           H   tau(  79) = (   0.6868520   0.1894270   0.6730500  )
        80           H   tau(  80) = (   0.6488240   0.2311100   0.7977990  )
        81           H   tau(  81) = (   0.7367530   0.1378040   0.7955060  )
        82           H   tau(  82) = (   0.8184960   0.3184580   0.6803010  )
        83           H   tau(  83) = (   0.8494640   0.2637090   0.7878130  )
        84           H   tau(  84) = (   0.7588890   0.3600560   0.7852230  )
        85           H   tau(  85) = (   0.6801810   0.6836370   0.1817770  )
        86           H   tau(  86) = (   0.6486630   0.7386140   0.2877880  )
        87           H   tau(  87) = (   0.7356260   0.6371710   0.2852470  )
        88           H   tau(  88) = (   0.8177170   0.8128520   0.1793520  )
        89           H   tau(  89) = (   0.8519540   0.7532060   0.2895680  )
        90           H   tau(  90) = (   0.7632690   0.8497200   0.2849610  )
        91           H   tau(  91) = (   0.6793810   0.6855990   0.6772940  )
        92           H   tau(  92) = (   0.6291200   0.7375640   0.7934130  )
        93           H   tau(  93) = (   0.7356120   0.6366120   0.7952700  )
        94           H   tau(  94) = (   0.8054210   0.8093630   0.6641570  )
        95           H   tau(  95) = (   0.8553450   0.7646380   0.7829390  )
        96           H   tau(  96) = (   0.7534210   0.8575780   0.7918760  )

     number of k points=    32
                       cart. coord. in units 2pi/alat
        k(    1) = (   0.1250000   0.1250000   0.1250000), wk =   0.0625000
        k(    2) = (   0.1250000   0.1250000   0.3750000), wk =   0.0625000
        k(    3) = (   0.1250000   0.3750000   0.3750000), wk =   0.0625000
        k(    4) = (   0.3750000   0.3750000   0.3750000), wk =   0.0625000
        k(    5) = (  -0.1250000  -0.1250000   0.1250000), wk =   0.0625000
        k(    6) = (  -0.1250000   0.1250000  -0.1250000), wk =   0.0625000
        k(    7) = (   0.1250000  -0.1250000  -0.1250000), wk =   0.0625000
        k(    8) = (  -0.1250000  -0.1250000   0.3750000), wk =   0.0625000
        k(    9) = (  -0.1250000   0.1250000  -0.3750000), wk =   0.0625000
        k(   10) = (   0.1250000  -0.1250000  -0.3750000), wk =   0.0625000
        k(   11) = (   0.3750000  -0.1250000   0.1250000), wk =   0.0625000
        k(   12) = (  -0.3750000  -0.1250000  -0.1250000), wk =   0.0625000
        k(   13) = (   0.3750000   0.1250000  -0.1250000), wk =   0.0625000
        k(   14) = (  -0.3750000   0.1250000   0.1250000), wk =   0.0625000
        k(   15) = (  -0.1250000   0.3750000   0.1250000), wk =   0.0625000
        k(   16) = (  -0.1250000  -0.3750000  -0.1250000), wk =   0.0625000
        k(   17) = (   0.1250000   0.3750000  -0.1250000), wk =   0.0625000
        k(   18) = (   0.1250000  -0.3750000   0.1250000), wk =   0.0625000
        k(   19) = (  -0.1250000  -0.3750000   0.3750000), wk =   0.0625000
        k(   20) = (  -0.1250000   0.3750000  -0.3750000), wk =   0.0625000
        k(   21) = (   0.1250000  -0.3750000  -0.3750000), wk =   0.0625000
        k(   22) = (   0.3750000   0.1250000  -0.3750000), wk =   0.0625000
        k(   23) = (  -0.3750000  -0.1250000  -0.3750000), wk =   0.0625000
        k(   24) = (   0.3750000  -0.1250000   0.3750000), wk =   0.0625000
        k(   25) = (  -0.3750000   0.1250000   0.3750000), wk =   0.0625000
        k(   26) = (   0.3750000  -0.3750000   0.1250000), wk =   0.0625000
        k(   27) = (  -0.3750000  -0.3750000  -0.1250000), wk =   0.0625000
        k(   28) = (   0.3750000   0.3750000  -0.1250000), wk =   0.0625000
        k(   29) = (  -0.3750000   0.3750000   0.1250000), wk =   0.0625000
        k(   30) = (  -0.3750000  -0.3750000   0.3750000), wk =   0.0625000
        k(   31) = (  -0.3750000   0.3750000  -0.3750000), wk =   0.0625000
        k(   32) = (   0.3750000  -0.3750000  -0.3750000), wk =   0.0625000

     Dense  grid:  2501869 G-vectors     FFT dimensions: ( 180, 180, 180)

     Estimated max dynamical RAM per process >       1.75 GB

     Estimated total dynamical RAM >      55.95 GB

     Initial potential from superposition of free atoms

     starting charge  399.97850, renormalised to  400.00000
     Starting wfcs are  280 randomized atomic wfcs
     Checking if some PAW data can be deallocated... 

     total cpu time spent up to now is     1084.7 secs

     Self-consistent Calculation

     iteration #  1     ecut=   120.00 Ry     beta= 0.70
     Davidson diagonalization with overlap
     ethr =  1.00E-02,  avg # of iterations =  2.0

     total cpu time spent up to now is     3389.5 secs

     total energy              =  -16487.63457279 Ry
     Harris-Foulkes estimate   =  -16491.70899247 Ry
     estimated scf accuracy    <       6.71011464 Ry

     iteration #  2     ecut=   120.00 Ry     beta= 0.70
     Davidson diagonalization with overlap
     ethr =  1.68E-03,  avg # of iterations =  3.0

     total cpu time spent up to now is     6474.1 secs

     total energy              =  -16489.03914023 Ry
     Harris-Foulkes estimate   =  -16490.52798308 Ry
     estimated scf accuracy    <       2.66784918 Ry

     iteration #  3     ecut=   120.00 Ry     beta= 0.70
     Davidson diagonalization with overlap
     ethr =  6.67E-04,  avg # of iterations =  3.0

     total cpu time spent up to now is     9104.6 secs

     total energy              =  -16489.66079351 Ry
     Harris-Foulkes estimate   =  -16489.75684825 Ry
     estimated scf accuracy    <       0.18879240 Ry

     iteration #  4     ecut=   120.00 Ry     beta= 0.70
     Davidson diagonalization with overlap
     ethr =  4.72E-05,  avg # of iterations =  3.0

     total cpu time spent up to now is    12272.0 secs

     total energy              =  -16489.70174485 Ry
     Harris-Foulkes estimate   =  -16489.73532289 Ry
     estimated scf accuracy    <       0.06747031 Ry

     iteration #  5     ecut=   120.00 Ry     beta= 0.70
     Davidson diagonalization with overlap
     ethr =  1.69E-05,  avg # of iterations =  3.0

     total cpu time spent up to now is    15123.5 secs

     total energy              =  -16489.71649472 Ry
     Harris-Foulkes estimate   =  -16489.72096924 Ry
     estimated scf accuracy    <       0.00933889 Ry

     iteration #  6     ecut=   120.00 Ry     beta= 0.70
     Davidson diagonalization with overlap
     ethr =  2.33E-06,  avg # of iterations =  3.0

     total cpu time spent up to now is    18227.2 secs

     total energy              =  -16489.71880634 Ry
     Harris-Foulkes estimate   =  -16489.71912415 Ry
     estimated scf accuracy    <       0.00069309 Ry

     iteration #  7     ecut=   120.00 Ry     beta= 0.70
     Davidson diagonalization with overlap
     ethr =  1.73E-07,  avg # of iterations =  3.0

     total cpu time spent up to now is    21394.4 secs

     total energy              =  -16489.71898509 Ry
     Harris-Foulkes estimate   =  -16489.71907313 Ry
     estimated scf accuracy    <       0.00018895 Ry

     iteration #  8     ecut=   120.00 Ry     beta= 0.70
     Davidson diagonalization with overlap
     ethr =  4.72E-08,  avg # of iterations =  3.0

     total cpu time spent up to now is    24461.9 secs

     total energy              =  -16489.71902864 Ry
     Harris-Foulkes estimate   =  -16489.71903875 Ry
     estimated scf accuracy    <       0.00002337 Ry

     iteration #  9     ecut=   120.00 Ry     beta= 0.70
     Davidson diagonalization with overlap
     ethr =  5.84E-09,  avg # of iterations =  4.0

     total cpu time spent up to now is    27550.7 secs

     total energy              =  -16489.71903376 Ry
     Harris-Foulkes estimate   =  -16489.71903698 Ry
     estimated scf accuracy    <       0.00000708 Ry

     iteration # 10     ecut=   120.00 Ry     beta= 0.70
     Davidson diagonalization with overlap
     ethr =  1.77E-09,  avg # of iterations =  3.0

     total cpu time spent up to now is    30456.5 secs

     total energy              =  -16489.71903544 Ry
     Harris-Foulkes estimate   =  -16489.71903579 Ry
     estimated scf accuracy    <       0.00000078 Ry

     iteration # 11     ecut=   120.00 Ry     beta= 0.70
     Davidson diagonalization with overlap
     ethr =  1.96E-10,  avg # of iterations =  3.1

     total cpu time spent up to now is    33431.9 secs

     End of self-consistent calculation

          k = 0.1250 0.1250 0.1250 (312775 PWs)   bands (ev):

   -20.0033 -18.9313 -18.4441 -18.3628 -18.2271 -17.9381 -17.0682 -16.8990
   -14.6158 -14.6074 -14.5857 -14.5820 -14.5752 -14.5012 -14.4989 -14.4872
   -14.4770 -14.4707 -14.4696 -14.4649 -14.4646 -14.4615 -14.4599 -14.4575
   -14.4502 -14.4393 -14.4375 -14.4319 -14.4303 -14.4295 -14.4266 -14.4257
   -14.4253 -14.4242 -14.4215 -14.4201 -14.4158 -14.4002 -14.3951 -14.3909
   -14.3831 -14.3820 -14.3790 -14.3460 -14.3364 -14.2868 -14.2836 -14.2786
   -11.8640 -11.7491 -11.3397 -11.1374 -11.1318 -11.1282 -11.0841 -11.0746
   -10.0333  -9.9027  -9.8397  -9.7865  -9.7004  -9.6760  -9.6317  -9.5476
    -9.5049  -9.4837  -9.4677  -9.4335  -9.3970  -9.3734  -9.3374  -9.3127
    -9.2828  -9.2371  -9.2077  -9.1396  -9.1199  -9.0763  -9.0711  -9.0650
    -9.0429  -9.0040  -8.9791  -8.7450  -8.2287  -7.9199  -7.7190  -7.6285
    -7.5967  -7.5285  -7.4406  -7.1709  -6.9403  -6.9301  -6.7263  -6.7226
    -6.1757  -6.1028  -6.0506  -5.7351  -5.7125  -5.6368  -5.6031  -5.4199
    -5.4168  -5.2747  -5.2410  -5.2303  -5.1887  -5.1697  -4.7551  -4.5082
    -4.2026  -4.1101  -3.6735  -3.4791  -3.3095  -3.2644  -3.1593  -2.8604
    -2.7153  -2.6007  -2.5616  -2.5128  -2.4100  -2.2797  -2.1372  -2.0873
    -1.1772  -1.1385  -1.1143  -1.0827  -1.0442  -1.0396  -1.0109  -0.9892
    -0.9337  -0.9100  -0.8724  -0.8389   0.0019   0.0204   0.0748   0.1154
     0.1345   0.1637   0.2614   0.3157   0.3279   0.3864   0.4010   0.4731
     0.4989   0.5406   0.5629   0.6159   0.6312   0.6438   0.6843   0.6970
     0.7145   0.7254   0.7440   0.7625   0.7792   0.7917   0.8068   0.8319
     0.8650   0.8902   0.9092   0.9266   0.9438   0.9643   0.9775   0.9871
     1.0078   1.0215   1.0359   1.0584   1.0643   1.0881   1.1058   1.1258
     1.1410   1.1601   1.1686   1.2802   1.2976   1.3384   1.4485   1.4706
     1.4870   1.4932   1.5107   1.5254   1.6011   1.6557   1.7279   1.9478

          k = 0.1250 0.1250 0.3750 (312678 PWs)   bands (ev):

   -20.0033 -18.9313 -18.4441 -18.3628 -18.2271 -17.9381 -17.0682 -16.8990
   -14.6158 -14.6073 -14.5857 -14.5820 -14.5752 -14.5012 -14.4987 -14.4871
   -14.4752 -14.4712 -14.4692 -14.4660 -14.4646 -14.4615 -14.4599 -14.4575
   -14.4503 -14.4397 -14.4378 -14.4319 -14.4303 -14.4297 -14.4266 -14.4258
   -14.4253 -14.4242 -14.4215 -14.4201 -14.4158 -14.4002 -14.3951 -14.3909
   -14.3831 -14.3820 -14.3790 -14.3461 -14.3364 -14.2868 -14.2836 -14.2786
   -11.8640 -11.7491 -11.3397 -11.1360 -11.1331 -11.1282 -11.0841 -11.0746
   -10.0206  -9.9111  -9.8431  -9.7688  -9.7305  -9.6911  -9.6222  -9.5443
    -9.5094  -9.4856  -9.4699  -9.4338  -9.3992  -9.3815  -9.3241  -9.3038
    -9.2668  -9.2293  -9.1900  -9.1396  -9.1286  -9.0861  -9.0781  -9.0655
    -9.0516  -9.0031  -8.9764  -8.7450  -8.2287  -7.9199  -7.7189  -7.6284
    -7.5967  -7.5285  -7.4406  -7.1709  -6.9402  -6.9303  -6.7276  -6.7211
    -6.1033  -6.0589  -6.0446  -5.8595  -5.6087  -5.5929  -5.5447  -5.4231
    -5.4181  -5.4002  -5.3678  -5.2323  -5.1882  -5.0867  -4.9097  -4.5086
    -4.2025  -4.1100  -3.6734  -3.4789  -3.3089  -3.2644  -3.1591  -2.8601
    -2.7152  -2.5999  -2.5604  -2.5123  -2.4091  -2.2784  -2.1362  -2.0872
    -1.1514  -1.1068  -1.0898  -1.0349  -1.0030  -0.9782  -0.9610  -0.9209
    -0.7033  -0.6208  -0.5904  -0.5068  -0.1083  -0.0031   0.0304   0.0323
     0.0854   0.1273   0.1615   0.1977   0.2070   0.2554   0.2903   0.3117
     0.3266   0.4043   0.4806   0.5592   0.5814   0.6022   0.6506   0.6694
     0.6938   0.7274   0.7507   0.7624   0.7900   0.8089   0.8259   0.8580
     0.8671   0.8777   0.8845   0.9088   0.9424   0.9671   0.9919   1.0076
     1.0194   1.0378   1.0449   1.0654   1.0811   1.1065   1.1258   1.1356
     1.1620   1.1859   1.2148   1.2300   1.3010   1.3115   1.3458   1.3631
     1.3921   1.4192   1.4413   1.4691   1.5101   1.5274   1.6800   1.7496

          k = 0.1250 0.3750 0.3750 (312762 PWs)   bands (ev):

   -20.0033 -18.9313 -18.4441 -18.3628 -18.2271 -17.9381 -17.0682 -16.8990
   -14.6157 -14.6073 -14.5857 -14.5820 -14.5752 -14.5012 -14.4986 -14.4870
   -14.4746 -14.4695 -14.4691 -14.4667 -14.4646 -14.4615 -14.4613 -14.4575
   -14.4504 -14.4397 -14.4382 -14.4319 -14.4303 -14.4297 -14.4266 -14.4257
   -14.4253 -14.4242 -14.4215 -14.4201 -14.4158 -14.4002 -14.3951 -14.3909
   -14.3831 -14.3820 -14.3790 -14.3461 -14.3365 -14.2868 -14.2836 -14.2786
   -11.8640 -11.7491 -11.3397 -11.1360 -11.1327 -11.1287 -11.0837 -11.0750
   -10.0056  -9.9136  -9.8436  -9.7710  -9.7353  -9.7044  -9.6402  -9.5666
    -9.4963  -9.4882  -9.4646  -9.4303  -9.3988  -9.3599  -9.3275  -9.2896
    -9.2640  -9.2098  -9.1903  -9.1436  -9.1299  -9.0977  -9.0860  -9.0650
    -9.0525  -9.0029  -8.9769  -8.7449  -8.2286  -7.9198  -7.7190  -7.6284
    -7.5967  -7.5285  -7.4405  -7.1710  -6.9402  -6.9303  -6.7276  -6.7211
    -6.1033  -6.0517  -5.9329  -5.7959  -5.6749  -5.6051  -5.5275  -5.4523
    -5.4204  -5.4136  -5.3348  -5.2334  -5.1950  -5.1667  -5.0558  -4.5088
    -4.2024  -4.1100  -3.6728  -3.4786  -3.3088  -3.2652  -3.1580  -2.8598
    -2.7160  -2.5996  -2.5598  -2.5119  -2.4082  -2.2779  -2.1358  -2.0870
    -1.0890  -1.0567  -1.0209  -0.9829  -0.8044  -0.7523  -0.6965  -0.6560
    -0.6120  -0.5508  -0.5078  -0.4857  -0.1113  -0.0747  -0.0563   0.0023
     0.0506   0.0760   0.0902   0.1067   0.1362   0.1742   0.2153   0.2510
     0.2898   0.3692   0.4177   0.4420   0.4811   0.5057   0.5299   0.5543
     0.6483   0.6688   0.6954   0.7380   0.7489   0.7574   0.7799   0.8026
     0.8469   0.8615   0.8818   0.9424   0.9569   0.9825   1.0036   1.0233
     1.0412   1.0650   1.0861   1.0937   1.1004   1.1158   1.1299   1.1507
     1.1599   1.1775   1.2107   1.2403   1.2679   1.2781   1.2944   1.3338
     1.3589   1.3923   1.4027   1.4086   1.4441   1.4626   1.4933   1.5460

          k = 0.3750 0.3750 0.3750 (312804 PWs)   bands (ev):

   -20.0033 -18.9313 -18.4441 -18.3628 -18.2271 -17.9381 -17.0682 -16.8990
   -14.6156 -14.6073 -14.5857 -14.5820 -14.5752 -14.5006 -14.4986 -14.4871
   -14.4746 -14.4699 -14.4693 -14.4667 -14.4645 -14.4615 -14.4612 -14.4574
   -14.4498 -14.4392 -14.4380 -14.4319 -14.4310 -14.4303 -14.4266 -14.4257
   -14.4253 -14.4242 -14.4215 -14.4201 -14.4158 -14.4002 -14.3951 -14.3909
   -14.3831 -14.3820 -14.3790 -14.3461 -14.3366 -14.2868 -14.2836 -14.2786
   -11.8640 -11.7491 -11.3397 -11.1360 -11.1331 -11.1279 -11.0844 -11.0747
    -9.9984  -9.8989  -9.8360  -9.7889  -9.7485  -9.6928  -9.6664  -9.6012
    -9.5051  -9.4766  -9.4627  -9.4090  -9.3952  -9.3452  -9.3205  -9.2844
    -9.2535  -9.2074  -9.1897  -9.1473  -9.1359  -9.0956  -9.0894  -9.0652
    -9.0594  -9.0028  -8.9767  -8.7450  -8.2287  -7.9199  -7.7190  -7.6285
    -7.5967  -7.5285  -7.4406  -7.1712  -6.9401  -6.9303  -6.7274  -6.7215
    -6.1032  -6.0517  -5.8235  -5.6973  -5.6454  -5.6018  -5.5192  -5.4838
    -5.4317  -5.4176  -5.3918  -5.3041  -5.2397  -5.2034  -5.1693  -4.5090
    -4.2023  -4.1100  -3.6728  -3.4785  -3.3086  -3.2651  -3.1579  -2.8596
    -2.7160  -2.5993  -2.5600  -2.5108  -2.4076  -2.2774  -2.1354  -2.0866
    -0.8490  -0.7957  -0.7816  -0.7424  -0.7047  -0.6898  -0.6662  -0.6211
    -0.5449  -0.5246  -0.4579  -0.4139  -0.1247  -0.1004  -0.0771  -0.0575
    -0.0432   0.0007   0.0176   0.0384   0.0619   0.0818   0.1345   0.2099
     0.3204   0.3823   0.3938   0.4204   0.4639   0.4859   0.5031   0.5352
     0.5714   0.5801   0.6252   0.6532   0.6832   0.7007   0.7247   0.7347
     0.7802   0.7978   0.8308   0.8683   0.8868   0.9093   0.9469   1.0147
     1.0396   1.0586   1.0828   1.1024   1.1266   1.1353   1.1432   1.1587
     1.1694   1.1844   1.2015   1.2221   1.2599   1.2700   1.2760   1.2910
     1.3069   1.3262   1.3484   1.3788   1.4011   1.4160   1.4328   1.4470

          k =-0.1250-0.1250 0.1250 (312775 PWs)   bands (ev):

   -20.0033 -18.9313 -18.4441 -18.3628 -18.2271 -17.9381 -17.0682 -16.8990
   -14.6158 -14.6074 -14.5857 -14.5820 -14.5752 -14.5012 -14.4989 -14.4872
   -14.4770 -14.4707 -14.4696 -14.4649 -14.4646 -14.4615 -14.4599 -14.4575
   -14.4502 -14.4393 -14.4375 -14.4319 -14.4303 -14.4295 -14.4266 -14.4257
   -14.4253 -14.4242 -14.4215 -14.4201 -14.4158 -14.4002 -14.3951 -14.3909
   -14.3831 -14.3820 -14.3790 -14.3460 -14.3364 -14.2868 -14.2836 -14.2786
   -11.8640 -11.7491 -11.3397 -11.1374 -11.1318 -11.1282 -11.0841 -11.0746
   -10.0339  -9.9031  -9.8338  -9.7903  -9.7071  -9.6696  -9.6295  -9.5574
    -9.4948  -9.4844  -9.4715  -9.4333  -9.3973  -9.3732  -9.3339  -9.3129
    -9.2870  -9.2260  -9.2165  -9.1401  -9.1198  -9.0753  -9.0706  -9.0665
    -9.0427  -9.0038  -8.9792  -8.7450  -8.2287  -7.9199  -7.7190  -7.6285
    -7.5967  -7.5285  -7.4406  -7.1709  -6.9403  -6.9301  -6.7258  -6.7230
    -6.1766  -6.1028  -6.0506  -5.7345  -5.6995  -5.6514  -5.6034  -5.4199
    -5.4171  -5.2667  -5.2393  -5.2248  -5.1917  -5.1811  -4.7536  -4.5083
    -4.2026  -4.1101  -3.6736  -3.4790  -3.3096  -3.2644  -3.1593  -2.8602
    -2.7154  -2.6007  -2.5611  -2.5132  -2.4100  -2.2798  -2.1371  -2.0871
    -1.1886  -1.1436  -1.1038  -1.0820  -1.0526  -1.0300  -1.0129  -0.9714
    -0.9383  -0.9113  -0.8768  -0.8400   0.0027   0.0195   0.0766   0.1182
     0.1316   0.1624   0.2606   0.3190   0.3246   0.3904   0.4032   0.4719
     0.4963   0.5342   0.5550   0.5944   0.6351   0.6545   0.6726   0.6926
     0.7148   0.7347   0.7428   0.7650   0.7724   0.8072   0.8210   0.8437
     0.8655   0.9018   0.9128   0.9302   0.9486   0.9690   0.9742   0.9921
     0.9997   1.0249   1.0319   1.0505   1.0573   1.0884   1.0963   1.1178
     1.1362   1.1606   1.1668   1.2769   1.3014   1.3379   1.4498   1.4727
     1.4823   1.4996   1.5123   1.5265   1.6035   1.6595   1.7177   1.9486

          k =-0.1250 0.1250-0.1250 (312775 PWs)   bands (ev):

   -20.0033 -18.9313 -18.4441 -18.3628 -18.2271 -17.9381 -17.0682 -16.8990
   -14.6158 -14.6074 -14.5857 -14.5820 -14.5752 -14.5012 -14.4989 -14.4872
   -14.4770 -14.4707 -14.4696 -14.4649 -14.4646 -14.4615 -14.4599 -14.4575
   -14.4502 -14.4393 -14.4375 -14.4319 -14.4303 -14.4295 -14.4266 -14.4257
   -14.4253 -14.4242 -14.4215 -14.4201 -14.4158 -14.4002 -14.3951 -14.3909
   -14.3831 -14.3820 -14.3790 -14.3460 -14.3364 -14.2868 -14.2836 -14.2786
   -11.8640 -11.7491 -11.3397 -11.1375 -11.1321 -11.1277 -11.0845 -11.0742
   -10.0345  -9.9048  -9.8260  -9.7945  -9.7078  -9.6704  -9.6302  -9.5562
    -9.4956  -9.4847  -9.4708  -9.4295  -9.4031  -9.3717  -9.3391  -9.3115
    -9.2758  -9.2391  -9.2111  -9.1394  -9.1202  -9.0744  -9.0712  -9.0668
    -9.0426  -9.0038  -8.9789  -8.7450  -8.2287  -7.9199  -7.7190  -7.6285
    -7.5967  -7.5285  -7.4406  -7.1709  -6.9403  -6.9301  -6.7263  -6.7226
    -6.1764  -6.1027  -6.0510  -5.7445  -5.6827  -5.6572  -5.6035  -5.4200
    -5.4173  -5.2781  -5.2357  -5.2138  -5.1974  -5.1785  -4.7540  -4.5082
    -4.2026  -4.1101  -3.6736  -3.4791  -3.3095  -3.2644  -3.1593  -2.8603
    -2.7154  -2.6007  -2.5617  -2.5127  -2.4099  -2.2796  -2.1371  -2.0874
    -1.1948  -1.1446  -1.0955  -1.0783  -1.0507  -1.0355  -1.0064  -0.9729
    -0.9454  -0.9137  -0.8735  -0.8391   0.0031   0.0171   0.0740   0.1179
     0.1311   0.1665   0.2567   0.3117   0.3349   0.3802   0.4006   0.4631
     0.5086   0.5299   0.5717   0.5933   0.6386   0.6595   0.6777   0.6958
     0.7258   0.7378   0.7531   0.7661   0.7770   0.8059   0.8147   0.8344
     0.8612   0.8871   0.9018   0.9337   0.9446   0.9586   0.9791   0.9880
     0.9949   1.0196   1.0328   1.0538   1.0588   1.0893   1.0968   1.1258
     1.1314   1.1538   1.1673   1.2715   1.3060   1.3362   1.4528   1.4727
     1.4861   1.4989   1.5130   1.5259   1.6063   1.6715   1.7182   1.9490

          k = 0.1250-0.1250-0.1250 (312775 PWs)   bands (ev):

   -20.0033 -18.9313 -18.4441 -18.3628 -18.2271 -17.9381 -17.0682 -16.8990
   -14.6158 -14.6074 -14.5857 -14.5820 -14.5752 -14.5012 -14.4989 -14.4872
   -14.4770 -14.4707 -14.4696 -14.4649 -14.4646 -14.4615 -14.4599 -14.4575
   -14.4502 -14.4393 -14.4375 -14.4319 -14.4303 -14.4295 -14.4266 -14.4257
   -14.4253 -14.4242 -14.4215 -14.4201 -14.4158 -14.4002 -14.3951 -14.3909
   -14.3831 -14.3820 -14.3790 -14.3460 -14.3364 -14.2868 -14.2836 -14.2786
   -11.8640 -11.7491 -11.3397 -11.1375 -11.1321 -11.1277 -11.0845 -11.0742
   -10.0348  -9.8973  -9.8480  -9.7777  -9.7026  -9.6767  -9.6355  -9.5451
    -9.5045  -9.4838  -9.4690  -9.4310  -9.4030  -9.3719  -9.3330  -9.3120
    -9.2869  -9.2341  -9.2084  -9.1395  -9.1205  -9.0761  -9.0720  -9.0644
    -9.0427  -9.0041  -8.9789  -8.7450  -8.2287  -7.9199  -7.7190  -7.6285
    -7.5967  -7.5285  -7.4406  -7.1709  -6.9403  -6.9301  -6.7259  -6.7230
    -6.1761  -6.1029  -6.0508  -5.7355  -5.7065  -5.6421  -5.6038  -5.4197
    -5.4173  -5.2733  -5.2440  -5.2239  -5.1869  -5.1750  -4.7549  -4.5082
    -4.2026  -4.1101  -3.6735  -3.4791  -3.3096  -3.2644  -3.1593  -2.8603
    -2.7154  -2.6006  -2.5612  -2.5133  -2.4099  -2.2799  -2.1371  -2.0871
    -1.1910  -1.1391  -1.1036  -1.0674  -1.0515  -1.0385  -1.0062  -0.9818
    -0.9559  -0.9110  -0.8639  -0.8425   0.0022   0.0193   0.0759   0.1193
     0.1391   0.1534   0.2527   0.3130   0.3378   0.3864   0.4057   0.4649
     0.5046   0.5412   0.5659   0.5809   0.6341   0.6501   0.6878   0.6947
     0.7209   0.7446   0.7602   0.7692   0.7827   0.7967   0.8165   0.8275
     0.8524   0.8895   0.9119   0.9244   0.9420   0.9525   0.9781   0.9898
     1.0004   1.0206   1.0281   1.0555   1.0729   1.0832   1.1062   1.1221
     1.1360   1.1544   1.1695   1.2760   1.2976   1.3390   1.4515   1.4791
     1.4855   1.4964   1.5090   1.5250   1.6007   1.6661   1.7218   1.9482

          k =-0.1250-0.1250 0.3750 (312678 PWs)   bands (ev):

   -20.0033 -18.9313 -18.4441 -18.3628 -18.2271 -17.9381 -17.0682 -16.8990
   -14.6158 -14.6073 -14.5857 -14.5820 -14.5752 -14.5012 -14.4987 -14.4871
   -14.4752 -14.4712 -14.4692 -14.4661 -14.4646 -14.4615 -14.4599 -14.4575
   -14.4503 -14.4397 -14.4378 -14.4319 -14.4303 -14.4297 -14.4266 -14.4258
   -14.4253 -14.4242 -14.4215 -14.4201 -14.4158 -14.4002 -14.3951 -14.3909
   -14.3831 -14.3820 -14.3790 -14.3461 -14.3364 -14.2868 -14.2836 -14.2786
   -11.8640 -11.7491 -11.3397 -11.1360 -11.1331 -11.1282 -11.0841 -11.0746
   -10.0214  -9.9107  -9.8399  -9.7652  -9.7427  -9.6853  -9.6179  -9.5574
    -9.4982  -9.4846  -9.4744  -9.4338  -9.3995  -9.3811  -9.3225  -9.3002
    -9.2728  -9.2242  -9.1934  -9.1379  -9.1308  -9.0856  -9.0772  -9.0669
    -9.0510  -9.0029  -8.9765  -8.7450  -8.2286  -7.9199  -7.7189  -7.6284
    -7.5967  -7.5285  -7.4406  -7.1709  -6.9402  -6.9304  -6.7273  -6.7213
    -6.1033  -6.0615  -6.0445  -5.8537  -5.6047  -5.5923  -5.5590  -5.4235
    -5.4194  -5.3980  -5.3568  -5.2321  -5.1883  -5.0964  -4.9050  -4.5087
    -4.2024  -4.1100  -3.6735  -3.4787  -3.3090  -3.2644  -3.1590  -2.8599
    -2.7152  -2.5999  -2.5599  -2.5126  -2.4091  -2.2785  -2.1361  -2.0869
    -1.1553  -1.1104  -1.0807  -1.0511  -0.9891  -0.9799  -0.9601  -0.9213
    -0.6977  -0.6214  -0.5924  -0.5053  -0.1140   0.0010   0.0204   0.0373
     0.0948   0.1327   0.1623   0.1821   0.2033   0.2676   0.2788   0.3056
     0.3441   0.4029   0.4693   0.5517   0.5743   0.6137   0.6562   0.6648
     0.6930   0.7272   0.7527   0.7665   0.7879   0.8101   0.8308   0.8453
     0.8556   0.8839   0.9006   0.9217   0.9489   0.9720   0.9891   1.0156
     1.0205   1.0325   1.0451   1.0698   1.0891   1.1014   1.1231   1.1368
     1.1575   1.1671   1.1945   1.2278   1.2974   1.3273   1.3485   1.3694
     1.3924   1.4088   1.4495   1.4686   1.5155   1.5227   1.6747   1.7521

          k =-0.1250 0.1250-0.3750 (312678 PWs)   bands (ev):

   -20.0033 -18.9313 -18.4441 -18.3628 -18.2271 -17.9381 -17.0682 -16.8990
   -14.6158 -14.6073 -14.5857 -14.5820 -14.5752 -14.5012 -14.4987 -14.4871
   -14.4752 -14.4712 -14.4692 -14.4661 -14.4646 -14.4615 -14.4599 -14.4575
   -14.4503 -14.4397 -14.4378 -14.4319 -14.4303 -14.4297 -14.4266 -14.4258
   -14.4253 -14.4242 -14.4215 -14.4201 -14.4158 -14.4002 -14.3951 -14.3909
   -14.3831 -14.3820 -14.3790 -14.3461 -14.3364 -14.2868 -14.2836 -14.2786
   -11.8640 -11.7491 -11.3397 -11.1361 -11.1335 -11.1278 -11.0845 -11.0742
   -10.0214  -9.9146  -9.8298  -9.7780  -9.7357  -9.6848  -9.6164  -9.5603
    -9.5026  -9.4820  -9.4720  -9.4304  -9.4047  -9.3799  -9.3269  -9.3013
    -9.2577  -9.2348  -9.1938  -9.1374  -9.1301  -9.0853  -9.0764  -9.0673
    -9.0511  -9.0029  -8.9763  -8.7451  -8.2287  -7.9199  -7.7189  -7.6284
    -7.5967  -7.5285  -7.4406  -7.1710  -6.9402  -6.9304  -6.7276  -6.7211
    -6.1039  -6.0579  -6.0468  -5.8563  -5.6069  -5.5844  -5.5597  -5.4289
    -5.4190  -5.3982  -5.3566  -5.2318  -5.1878  -5.0938  -4.9062  -4.5086
    -4.2025  -4.1100  -3.6735  -3.4788  -3.3090  -3.2644  -3.1590  -2.8600
    -2.7152  -2.6000  -2.5605  -2.5122  -2.4091  -2.2784  -2.1361  -2.0872
    -1.1615  -1.1005  -1.0773  -1.0424  -1.0061  -0.9765  -0.9600  -0.9256
    -0.7013  -0.6153  -0.5885  -0.5072  -0.1178  -0.0001   0.0158   0.0467
     0.0875   0.1277   0.1607   0.1861   0.2058   0.2671   0.2831   0.3032
     0.3374   0.4094   0.4880   0.5646   0.5850   0.5982   0.6403   0.6687
     0.6928   0.7336   0.7434   0.7679   0.7942   0.8049   0.8252   0.8335
     0.8533   0.8757   0.9032   0.9230   0.9511   0.9701   0.9948   1.0044
     1.0137   1.0239   1.0470   1.0666   1.0873   1.1193   1.1293   1.1418
     1.1609   1.1804   1.1900   1.2293   1.2964   1.3201   1.3397   1.3712
     1.3971   1.4050   1.4513   1.4759   1.5092   1.5242   1.6821   1.7527

          k = 0.1250-0.1250-0.3750 (312678 PWs)   bands (ev):

   -20.0033 -18.9313 -18.4441 -18.3628 -18.2271 -17.9381 -17.0682 -16.8990
   -14.6158 -14.6073 -14.5857 -14.5820 -14.5752 -14.5012 -14.4987 -14.4871
   -14.4752 -14.4712 -14.4692 -14.4660 -14.4646 -14.4615 -14.4599 -14.4575
   -14.4503 -14.4397 -14.4378 -14.4319 -14.4303 -14.4297 -14.4266 -14.4258
   -14.4253 -14.4242 -14.4215 -14.4201 -14.4158 -14.4002 -14.3951 -14.3909
   -14.3831 -14.3820 -14.3790 -14.3461 -14.3364 -14.2868 -14.2836 -14.2786
   -11.8640 -11.7491 -11.3397 -11.1361 -11.1335 -11.1278 -11.0845 -11.0742
   -10.0219  -9.9079  -9.8482  -9.7600  -9.7336  -9.6925  -9.6228  -9.5445
    -9.5129  -9.4831  -9.4697  -9.4316  -9.4046  -9.3801  -9.3230  -9.3022
    -9.2664  -9.2312  -9.1889  -9.1395  -9.1293  -9.0868  -9.0767  -9.0658
    -9.0513  -9.0032  -8.9763  -8.7450  -8.2287  -7.9199  -7.7189  -7.6284
    -7.5968  -7.5285  -7.4406  -7.1710  -6.9402  -6.9304  -6.7273  -6.7214
    -6.1034  -6.0603  -6.0442  -5.8571  -5.6080  -5.5952  -5.5471  -5.4230
    -5.4192  -5.3946  -5.3694  -5.2315  -5.1873  -5.0894  -4.9087  -4.5086
    -4.2025  -4.1100  -3.6734  -3.4789  -3.3090  -3.2644  -3.1590  -2.8600
    -2.7152  -2.5999  -2.5600  -2.5128  -2.4090  -2.2786  -2.1362  -2.0869
    -1.1601  -1.1009  -1.0697  -1.0489  -0.9919  -0.9825  -0.9720  -0.9198
    -0.7086  -0.6159  -0.5884  -0.5104  -0.1110   0.0041   0.0215   0.0345
     0.1002   0.1288   0.1558   0.1818   0.2099   0.2531   0.2902   0.3055
     0.3395   0.4136   0.4821   0.5622   0.5846   0.5975   0.6353   0.6752
     0.6909   0.7318   0.7462   0.7774   0.7847   0.7982   0.8195   0.8377
     0.8698   0.8841   0.8931   0.9172   0.9465   0.9644   0.9864   1.0136
     1.0214   1.0410   1.0476   1.0679   1.0776   1.1142   1.1256   1.1387
     1.1460   1.1877   1.2107   1.2325   1.2899   1.3118   1.3511   1.3742
     1.3917   1.4125   1.4458   1.4658   1.5085   1.5249   1.6838   1.7518

          k = 0.3750-0.1250 0.1250 (312678 PWs)   bands (ev):

   -20.0033 -18.9313 -18.4441 -18.3628 -18.2271 -17.9381 -17.0682 -16.8990
   -14.6157 -14.6073 -14.5857 -14.5820 -14.5752 -14.5007 -14.4989 -14.4874
   -14.4770 -14.4709 -14.4699 -14.4649 -14.4645 -14.4615 -14.4598 -14.4574
   -14.4496 -14.4388 -14.4374 -14.4319 -14.4308 -14.4303 -14.4266 -14.4257
   -14.4253 -14.4242 -14.4215 -14.4201 -14.4158 -14.4002 -14.3951 -14.3909
   -14.3831 -14.3820 -14.3790 -14.3460 -14.3365 -14.2868 -14.2836 -14.2786
   -11.8640 -11.7491 -11.3397 -11.1374 -11.1317 -11.1279 -11.0844 -11.0747
   -10.0190  -9.9105  -9.8184  -9.7898  -9.7359  -9.7009  -9.6202  -9.5649
    -9.4958  -9.4853  -9.4678  -9.4202  -9.4007  -9.3672  -9.3442  -9.3001
    -9.2559  -9.2284  -9.1949  -9.1514  -9.1297  -9.0786  -9.0726  -9.0670
    -9.0517  -9.0037  -8.9786  -8.7451  -8.2287  -7.9200  -7.7190  -7.6286
    -7.5967  -7.5286  -7.4406  -7.1710  -6.9401  -6.9303  -6.7264  -6.7225
    -6.1035  -6.0580  -6.0483  -5.8559  -5.6073  -5.5945  -5.5505  -5.4277
    -5.4189  -5.4042  -5.3494  -5.2323  -5.1871  -5.0968  -4.9032  -4.5087
    -4.2025  -4.1100  -3.6736  -3.4789  -3.3094  -3.2643  -3.1592  -2.8603
    -2.7153  -2.6003  -2.5610  -2.5125  -2.4095  -2.2790  -2.1368  -2.0874
    -1.1579  -1.1020  -1.0804  -1.0403  -1.0152  -0.9979  -0.9234  -0.9028
    -0.7059  -0.6219  -0.5814  -0.4990  -0.1123  -0.0204   0.0228   0.0460
     0.0900   0.1329   0.1524   0.1959   0.2130   0.2431   0.2780   0.3272
     0.3410   0.4250   0.4543   0.4843   0.5265   0.6208   0.6429   0.6650
     0.6950   0.7359   0.7444   0.7625   0.7791   0.8107   0.8301   0.8430
     0.8664   0.8799   0.8981   0.9128   0.9537   0.9648   0.9879   1.0052
     1.0118   1.0254   1.0485   1.0587   1.0916   1.1034   1.1215   1.1364
     1.1742   1.2016   1.2208   1.2313   1.3076   1.3391   1.3517   1.3781
     1.3950   1.4325   1.4536   1.4737   1.5163   1.5462   1.6784   1.7446

          k =-0.3750-0.1250-0.1250 (312678 PWs)   bands (ev):

   -20.0033 -18.9313 -18.4441 -18.3628 -18.2271 -17.9381 -17.0682 -16.8990
   -14.6157 -14.6073 -14.5857 -14.5820 -14.5752 -14.5007 -14.4989 -14.4874
   -14.4770 -14.4709 -14.4699 -14.4649 -14.4645 -14.4615 -14.4598 -14.4574
   -14.4496 -14.4388 -14.4374 -14.4319 -14.4308 -14.4303 -14.4266 -14.4257
   -14.4253 -14.4242 -14.4215 -14.4201 -14.4158 -14.4002 -14.3951 -14.3909
   -14.3831 -14.3820 -14.3790 -14.3460 -14.3365 -14.2868 -14.2836 -14.2786
   -11.8640 -11.7491 -11.3397 -11.1372 -11.1312 -11.1286 -11.0840 -11.0751
   -10.0177  -9.9091  -9.8261  -9.7928  -9.7287  -9.6990  -9.6210  -9.5561
    -9.5122  -9.4828  -9.4618  -9.4244  -9.3960  -9.3672  -9.3433  -9.3045
    -9.2562  -9.2262  -9.1947  -9.1520  -9.1285  -9.0803  -9.0736  -9.0648
    -9.0518  -9.0040  -8.9788  -8.7451  -8.2287  -7.9199  -7.7190  -7.6286
    -7.5967  -7.5285  -7.4406  -7.1709  -6.9401  -6.9302  -6.7264  -6.7225
    -6.1032  -6.0613  -6.0440  -5.8552  -5.6162  -5.6002  -5.5382  -5.4248
    -5.4183  -5.4114  -5.3433  -5.2323  -5.1870  -5.0983  -4.9037  -4.5087
    -4.2025  -4.1100  -3.6736  -3.4790  -3.3093  -3.2643  -3.1592  -2.8603
    -2.7152  -2.6003  -2.5608  -2.5127  -2.4097  -2.2791  -2.1369  -2.0874
    -1.1426  -1.0981  -1.0741  -1.0534  -1.0331  -1.0072  -0.9130  -0.8963
    -0.7101  -0.6259  -0.5792  -0.4962  -0.1147  -0.0195   0.0189   0.0502
     0.0997   0.1226   0.1584   0.2012   0.2117   0.2510   0.2808   0.3149
     0.3417   0.4154   0.4435   0.4996   0.5466   0.5896   0.6512   0.6843
     0.7030   0.7203   0.7367   0.7643   0.7682   0.7965   0.8207   0.8398
     0.8642   0.8751   0.8991   0.9177   0.9600   0.9702   0.9913   1.0036
     1.0278   1.0451   1.0508   1.0643   1.0839   1.0993   1.1085   1.1379
     1.1826   1.2122   1.2201   1.2546   1.3092   1.3210   1.3465   1.3790
     1.3988   1.4261   1.4546   1.4625   1.5131   1.5342   1.6833   1.7455

          k = 0.3750 0.1250-0.1250 (312678 PWs)   bands (ev):

   -20.0033 -18.9313 -18.4441 -18.3628 -18.2271 -17.9381 -17.0682 -16.8990
   -14.6157 -14.6073 -14.5857 -14.5820 -14.5752 -14.5007 -14.4989 -14.4874
   -14.4770 -14.4709 -14.4699 -14.4649 -14.4645 -14.4615 -14.4598 -14.4574
   -14.4496 -14.4388 -14.4374 -14.4319 -14.4308 -14.4303 -14.4266 -14.4257
   -14.4253 -14.4242 -14.4215 -14.4201 -14.4158 -14.4002 -14.3951 -14.3909
   -14.3831 -14.3820 -14.3790 -14.3460 -14.3365 -14.2868 -14.2836 -14.2786
   -11.8640 -11.7491 -11.3397 -11.1372 -11.1312 -11.1286 -11.0840 -11.0751
   -10.0182  -9.9088  -9.8295  -9.7796  -9.7400  -9.6977  -9.6194  -9.5664
    -9.4950  -9.4855  -9.4683  -9.4241  -9.3950  -9.3690  -9.3402  -9.3032
    -9.2628  -9.2215  -9.1938  -9.1539  -9.1287  -9.0798  -9.0723  -9.0663
    -9.0518  -9.0038  -8.9790  -8.7451  -8.2287  -7.9199  -7.7190  -7.6286
    -7.5967  -7.5285  -7.4406  -7.1709  -6.9401  -6.9303  -6.7259  -6.7229
    -6.1030  -6.0637  -6.0432  -5.8534  -5.6087  -5.6021  -5.5465  -5.4232
    -5.4186  -5.3999  -5.3544  -5.2319  -5.1868  -5.1001  -4.9016  -4.5088
    -4.2025  -4.1100  -3.6737  -3.4788  -3.3094  -3.2643  -3.1592  -2.8602
    -2.7153  -2.6003  -2.5603  -2.5130  -2.4096  -2.2792  -2.1368  -2.0871
    -1.1556  -1.0981  -1.0810  -1.0433  -1.0208  -1.0013  -0.9170  -0.9003
    -0.7082  -0.6240  -0.5854  -0.4964  -0.1133  -0.0086   0.0275   0.0375
     0.0886   0.1286   0.1661   0.1940   0.2120   0.2527   0.2838   0.3118
     0.3397   0.4151   0.4337   0.5063   0.5248   0.6053   0.6436   0.6701
     0.7012   0.7248   0.7431   0.7577   0.7702   0.8130   0.8393   0.8523
     0.8685   0.8832   0.8949   0.9162   0.9616   0.9802   0.9939   1.0049
     1.0139   1.0280   1.0439   1.0699   1.0750   1.0924   1.1152   1.1243
     1.1897   1.2030   1.2181   1.2616   1.3055   1.3309   1.3439   1.3792
     1.4042   1.4256   1.4450   1.4654   1.5178   1.5407   1.6779   1.7439

          k =-0.3750 0.1250 0.1250 (312678 PWs)   bands (ev):

   -20.0033 -18.9313 -18.4441 -18.3628 -18.2271 -17.9381 -17.0682 -16.8990
   -14.6157 -14.6073 -14.5857 -14.5820 -14.5752 -14.5007 -14.4989 -14.4874
   -14.4770 -14.4709 -14.4699 -14.4649 -14.4645 -14.4615 -14.4598 -14.4574
   -14.4496 -14.4388 -14.4374 -14.4319 -14.4308 -14.4303 -14.4266 -14.4257
   -14.4253 -14.4242 -14.4215 -14.4201 -14.4158 -14.4002 -14.3951 -14.3909
   -14.3831 -14.3820 -14.3790 -14.3460 -14.3365 -14.2868 -14.2836 -14.2786
   -11.8640 -11.7491 -11.3397 -11.1374 -11.1317 -11.1279 -11.0844 -11.0747
   -10.0197  -9.9030  -9.8391  -9.7755  -9.7342  -9.7016  -9.6237  -9.5534
    -9.5121  -9.4831  -9.4626  -9.4215  -9.4018  -9.3664  -9.3407  -9.3015
    -9.2616  -9.2243  -9.1922  -9.1527  -9.1300  -9.0786  -9.0756  -9.0641
    -9.0517  -9.0041  -8.9786  -8.7451  -8.2287  -7.9199  -7.7190  -7.6286
    -7.5967  -7.5285  -7.4406  -7.1710  -6.9401  -6.9303  -6.7260  -6.7228
    -6.1030  -6.0605  -6.0465  -5.8525  -5.6114  -5.6041  -5.5427  -5.4276
    -5.4201  -5.4059  -5.3408  -5.2320  -5.1869  -5.1000  -4.9032  -4.5087
    -4.2025  -4.1100  -3.6735  -3.4790  -3.3094  -3.2643  -3.1592  -2.8602
    -2.7153  -2.6002  -2.5604  -2.5131  -2.4095  -2.2793  -2.1368  -2.0871
    -1.1470  -1.1023  -1.0795  -1.0424  -1.0231  -1.0077  -0.9229  -0.8944
    -0.7051  -0.6233  -0.5846  -0.5004  -0.1107  -0.0054   0.0268   0.0324
     0.0887   0.1308   0.1508   0.1971   0.2186   0.2393   0.2809   0.3214
     0.3443   0.4230   0.4498   0.4889   0.5385   0.5946   0.6458   0.6791
     0.7027   0.7393   0.7513   0.7576   0.7755   0.7996   0.8258   0.8424
     0.8541   0.8761   0.9032   0.9278   0.9412   0.9623   0.9779   1.0037
     1.0192   1.0322   1.0554   1.0661   1.1006   1.1119   1.1251   1.1309
     1.1700   1.1987   1.2221   1.2342   1.3087   1.3252   1.3626   1.3744
     1.4019   1.4249   1.4532   1.4742   1.5093   1.5398   1.6756   1.7510

          k =-0.1250 0.3750 0.1250 (312678 PWs)   bands (ev):

   -20.0033 -18.9313 -18.4441 -18.3628 -18.2271 -17.9381 -17.0682 -16.8990
   -14.6157 -14.6074 -14.5857 -14.5820 -14.5752 -14.5012 -14.4989 -14.4871
   -14.4764 -14.4696 -14.4689 -14.4656 -14.4646 -14.4615 -14.4612 -14.4575
   -14.4504 -14.4393 -14.4379 -14.4319 -14.4303 -14.4295 -14.4266 -14.4257
   -14.4253 -14.4242 -14.4215 -14.4201 -14.4158 -14.4002 -14.3951 -14.3909
   -14.3831 -14.3820 -14.3790 -14.3460 -14.3365 -14.2868 -14.2836 -14.2786
   -11.8640 -11.7491 -11.3397 -11.1374 -11.1318 -11.1281 -11.0841 -11.0746
   -10.0165  -9.9131  -9.8489  -9.7626  -9.7140  -9.6912  -9.6571  -9.5447
    -9.5103  -9.4833  -9.4640  -9.4302  -9.3991  -9.3531  -9.3389  -9.3071
    -9.2807  -9.2172  -9.1928  -9.1383  -9.1237  -9.0943  -9.0796  -9.0662
    -9.0434  -9.0041  -8.9797  -8.7449  -8.2287  -7.9199  -7.7190  -7.6285
    -7.5967  -7.5286  -7.4405  -7.1710  -6.9403  -6.9301  -6.7259  -6.7229
    -6.1030  -6.0568  -6.0471  -5.8551  -5.6131  -5.6020  -5.5429  -5.4231
    -5.4200  -5.3933  -5.3601  -5.2315  -5.1895  -5.0952  -4.9071  -4.5087
    -4.2026  -4.1101  -3.6727  -3.4791  -3.3095  -3.2652  -3.1582  -2.8599
    -2.7162  -2.6003  -2.5604  -2.5132  -2.4092  -2.2797  -2.1370  -2.0870
    -1.1307  -1.0988  -1.0750  -1.0484  -1.0135  -0.9677  -0.9308  -0.9013
    -0.7382  -0.6426  -0.5854  -0.5183  -0.0809  -0.0080   0.0374   0.0479
     0.0676   0.1214   0.1617   0.1863   0.2087   0.2432   0.2722   0.2880
     0.3703   0.4168   0.4624   0.4990   0.5721   0.6000   0.6399   0.6842
     0.7061   0.7294   0.7474   0.7601   0.7756   0.8062   0.8175   0.8393
     0.8547   0.8753   0.8969   0.9219   0.9441   0.9681   0.9820   0.9863
     1.0329   1.0439   1.0692   1.0751   1.0928   1.1007   1.1106   1.1434
     1.1641   1.1870   1.2041   1.2468   1.2931   1.3432   1.3737   1.3909
     1.3992   1.4298   1.4505   1.4693   1.4806   1.5137   1.6779   1.7444

          k =-0.1250-0.3750-0.1250 (312678 PWs)   bands (ev):

   -20.0033 -18.9313 -18.4441 -18.3628 -18.2271 -17.9381 -17.0682 -16.8990
   -14.6157 -14.6074 -14.5857 -14.5820 -14.5752 -14.5012 -14.4989 -14.4871
   -14.4764 -14.4696 -14.4689 -14.4656 -14.4646 -14.4615 -14.4612 -14.4575
   -14.4504 -14.4393 -14.4379 -14.4319 -14.4303 -14.4295 -14.4266 -14.4257
   -14.4253 -14.4242 -14.4215 -14.4201 -14.4158 -14.4002 -14.3951 -14.3909
   -14.3831 -14.3820 -14.3790 -14.3460 -14.3365 -14.2868 -14.2836 -14.2786
   -11.8640 -11.7491 -11.3397 -11.1373 -11.1314 -11.1287 -11.0838 -11.0750
   -10.0147  -9.9161  -9.8472  -9.7670  -9.7153  -9.6827  -9.6606  -9.5447
    -9.5080  -9.4822  -9.4662  -9.4309  -9.3969  -9.3576  -9.3343  -9.3089
    -9.2831  -9.2147  -9.1934  -9.1391  -9.1230  -9.0939  -9.0792  -9.0670
    -9.0435  -9.0040  -8.9798  -8.7449  -8.2287  -7.9199  -7.7191  -7.6285
    -7.5967  -7.5286  -7.4405  -7.1709  -6.9403  -6.9301  -6.7263  -6.7225
    -6.1030  -6.0602  -6.0428  -5.8552  -5.6186  -5.6044  -5.5350  -5.4220
    -5.4185  -5.3974  -5.3590  -5.2317  -5.1889  -5.0965  -4.9068  -4.5087
    -4.2026  -4.1101  -3.6728  -3.4791  -3.3094  -3.2651  -3.1583  -2.8600
    -2.7161  -2.6003  -2.5608  -2.5128  -2.4094  -2.2795  -2.1370  -2.0873
    -1.1182  -1.0964  -1.0828  -1.0573  -1.0154  -0.9718  -0.9270  -0.8973
    -0.7354  -0.6460  -0.5836  -0.5193  -0.0867  -0.0069   0.0470   0.0521
     0.0670   0.1155   0.1571   0.1832   0.2092   0.2651   0.2681   0.2899
     0.3661   0.4054   0.4520   0.5145   0.5693   0.5969   0.6453   0.6947
     0.7046   0.7317   0.7376   0.7462   0.7804   0.7878   0.8135   0.8369
     0.8582   0.8753   0.9060   0.9375   0.9427   0.9684   0.9706   0.9948
     1.0233   1.0453   1.0635   1.0753   1.0901   1.1120   1.1301   1.1392
     1.1663   1.1855   1.2304   1.2368   1.2895   1.3340   1.3776   1.3948
     1.4034   1.4078   1.4385   1.4693   1.4872   1.5201   1.6744   1.7463

          k = 0.1250 0.3750-0.1250 (312678 PWs)   bands (ev):

   -20.0033 -18.9313 -18.4441 -18.3628 -18.2271 -17.9381 -17.0682 -16.8990
   -14.6157 -14.6074 -14.5857 -14.5820 -14.5752 -14.5012 -14.4989 -14.4871
   -14.4764 -14.4696 -14.4688 -14.4656 -14.4646 -14.4615 -14.4612 -14.4575
   -14.4504 -14.4393 -14.4379 -14.4319 -14.4303 -14.4295 -14.4266 -14.4257
   -14.4253 -14.4242 -14.4215 -14.4201 -14.4158 -14.4002 -14.3951 -14.3909
   -14.3831 -14.3820 -14.3790 -14.3460 -14.3365 -14.2868 -14.2836 -14.2786
   -11.8640 -11.7491 -11.3397 -11.1373 -11.1314 -11.1287 -11.0838 -11.0750
   -10.0151  -9.9185  -9.8362  -9.7793  -9.7137  -9.6829  -9.6542  -9.5549
    -9.5030  -9.4833  -9.4646  -9.4316  -9.3965  -9.3514  -9.3418  -9.3052
    -9.2828  -9.2104  -9.1991  -9.1404  -9.1229  -9.0925  -9.0790  -9.0675
    -9.0433  -9.0038  -8.9800  -8.7449  -8.2287  -7.9199  -7.7191  -7.6285
    -7.5967  -7.5286  -7.4405  -7.1709  -6.9403  -6.9301  -6.7259  -6.7229
    -6.1031  -6.0609  -6.0439  -5.8519  -5.6119  -5.6021  -5.5508  -5.4217
    -5.4203  -5.3896  -5.3562  -5.2315  -5.1897  -5.1031  -4.9032  -4.5087
    -4.2025  -4.1101  -3.6729  -3.4789  -3.3095  -3.2651  -3.1583  -2.8598
    -2.7162  -2.6004  -2.5604  -2.5131  -2.4094  -2.2796  -2.1370  -2.0871
    -1.1263  -1.0924  -1.0816  -1.0544  -1.0219  -0.9722  -0.9246  -0.8982
    -0.7272  -0.6418  -0.5876  -0.5177  -0.0958  -0.0060   0.0220   0.0653
     0.0800   0.1164   0.1623   0.1797   0.2127   0.2476   0.2779   0.3028
     0.3638   0.4018   0.4351   0.5205   0.5701   0.6059   0.6549   0.6673
     0.6996   0.7149   0.7370   0.7625   0.7691   0.8023   0.8186   0.8396
     0.8666   0.8914   0.9006   0.9277   0.9587   0.9784   0.9846   0.9983
     1.0067   1.0367   1.0609   1.0809   1.1015   1.1080   1.1139   1.1323
     1.1735   1.1868   1.2071   1.2371   1.2948   1.3413   1.3688   1.3855
     1.4008   1.4251   1.4454   1.4718   1.4882   1.5110   1.6752   1.7438

          k = 0.1250-0.3750 0.1250 (312678 PWs)   bands (ev):

   -20.0033 -18.9313 -18.4441 -18.3628 -18.2271 -17.9381 -17.0682 -16.8990
   -14.6157 -14.6074 -14.5857 -14.5820 -14.5752 -14.5012 -14.4989 -14.4871
   -14.4764 -14.4696 -14.4688 -14.4656 -14.4646 -14.4615 -14.4612 -14.4575
   -14.4504 -14.4393 -14.4379 -14.4319 -14.4303 -14.4295 -14.4266 -14.4257
   -14.4253 -14.4242 -14.4215 -14.4201 -14.4158 -14.4002 -14.3951 -14.3909
   -14.3831 -14.3820 -14.3790 -14.3460 -14.3365 -14.2868 -14.2836 -14.2786
   -11.8640 -11.7491 -11.3397 -11.1374 -11.1318 -11.1281 -11.0841 -11.0746
   -10.0164  -9.9172  -9.8368  -9.7740  -9.7199  -9.6764  -9.6616  -9.5519
    -9.5026  -9.4809  -9.4679  -9.4285  -9.3996  -9.3591  -9.3347  -9.3046
    -9.2823  -9.2121  -9.1982  -9.1400  -9.1231  -9.0918  -9.0794  -9.0682
    -9.0432  -9.0037  -8.9796  -8.7449  -8.2287  -7.9199  -7.7191  -7.6285
    -7.5967  -7.5286  -7.4405  -7.1710  -6.9403  -6.9301  -6.7263  -6.7225
    -6.1034  -6.0563  -6.0486  -5.8518  -5.6103  -5.6041  -5.5488  -5.4250
    -5.4192  -5.4000  -5.3444  -5.2315  -5.1897  -5.1026  -4.9040  -4.5087
    -4.2026  -4.1101  -3.6728  -3.4790  -3.3095  -3.2652  -3.1582  -2.8599
    -2.7162  -2.6004  -2.5609  -2.5127  -2.4093  -2.2794  -2.1369  -2.0873
    -1.1303  -1.1018  -1.0750  -1.0542  -1.0072  -0.9686  -0.9331  -0.9022
    -0.7273  -0.6397  -0.5877  -0.5177  -0.0896  -0.0170   0.0327   0.0491
     0.0799   0.1202   0.1618   0.1997   0.2128   0.2269   0.2790   0.2886
     0.3700   0.4105   0.4522   0.4988   0.5779   0.6047   0.6549   0.6933
     0.7111   0.7314   0.7361   0.7468   0.7767   0.7857   0.8148   0.8320
     0.8731   0.8793   0.8940   0.9283   0.9541   0.9662   0.9823   0.9984
     1.0061   1.0421   1.0612   1.0821   1.0938   1.1065   1.1145   1.1500
     1.1641   1.1786   1.2075   1.2234   1.3051   1.3393   1.3679   1.3922
     1.4085   1.4205   1.4557   1.4674   1.4903   1.5211   1.6762   1.7428

          k =-0.1250-0.3750 0.3750 (312762 PWs)   bands (ev):

   -20.0033 -18.9313 -18.4441 -18.3628 -18.2271 -17.9381 -17.0682 -16.8990
   -14.6157 -14.6073 -14.5857 -14.5820 -14.5752 -14.5012 -14.4986 -14.4870
   -14.4746 -14.4696 -14.4690 -14.4667 -14.4646 -14.4615 -14.4613 -14.4575
   -14.4504 -14.4397 -14.4382 -14.4319 -14.4303 -14.4297 -14.4266 -14.4257
   -14.4253 -14.4242 -14.4215 -14.4201 -14.4158 -14.4002 -14.3951 -14.3909
   -14.3831 -14.3820 -14.3790 -14.3461 -14.3365 -14.2868 -14.2836 -14.2786
   -11.8640 -11.7491 -11.3397 -11.1360 -11.1327 -11.1287 -11.0837 -11.0750
   -10.0061  -9.9164  -9.8286  -9.7871  -9.7386  -9.6967  -9.6333  -9.5784
    -9.4957  -9.4842  -9.4654  -9.4311  -9.3984  -9.3575  -9.3291  -9.2870
    -9.2644  -9.2041  -9.1983  -9.1408  -9.1336  -9.0952  -9.0866  -9.0655
    -9.0520  -9.0028  -8.9771  -8.7449  -8.2286  -7.9198  -7.7190  -7.6284
    -7.5967  -7.5285  -7.4405  -7.1710  -6.9402  -6.9303  -6.7274  -6.7213
    -6.1033  -6.0518  -5.9399  -5.7761  -5.6851  -5.6045  -5.5374  -5.4545
    -5.4200  -5.4161  -5.2972  -5.2360  -5.2193  -5.1787  -5.0434  -4.5088
    -4.2024  -4.1100  -3.6729  -3.4785  -3.3089  -3.2652  -3.1580  -2.8596
    -2.7161  -2.5996  -2.5594  -2.5123  -2.4082  -2.2780  -2.1358  -2.0868
    -1.0895  -1.0549  -1.0239  -0.9806  -0.8320  -0.7510  -0.6822  -0.6417
    -0.5966  -0.5409  -0.5212  -0.4928  -0.1132  -0.0810  -0.0605   0.0029
     0.0340   0.0740   0.1027   0.1118   0.1314   0.1689   0.2164   0.2660
     0.3061   0.3655   0.3955   0.4414   0.4731   0.4901   0.5533   0.5826
     0.6320   0.6543   0.6909   0.7384   0.7425   0.7644   0.7807   0.8145
     0.8365   0.8647   0.8866   0.9504   0.9718   0.9865   1.0084   1.0245
     1.0455   1.0627   1.0669   1.0927   1.1133   1.1184   1.1327   1.1365
     1.1701   1.1854   1.1951   1.2263   1.2443   1.2816   1.2932   1.3502
     1.3573   1.3797   1.4018   1.4245   1.4415   1.4660   1.5094   1.5295

          k =-0.1250 0.3750-0.3750 (312762 PWs)   bands (ev):

   -20.0033 -18.9313 -18.4441 -18.3628 -18.2271 -17.9381 -17.0682 -16.8990
   -14.6157 -14.6073 -14.5857 -14.5820 -14.5752 -14.5012 -14.4986 -14.4870
   -14.4746 -14.4696 -14.4690 -14.4667 -14.4646 -14.4615 -14.4613 -14.4575
   -14.4504 -14.4397 -14.4382 -14.4319 -14.4303 -14.4297 -14.4266 -14.4257
   -14.4253 -14.4242 -14.4215 -14.4201 -14.4158 -14.4002 -14.3951 -14.3909
   -14.3831 -14.3820 -14.3790 -14.3461 -14.3365 -14.2868 -14.2836 -14.2786
   -11.8640 -11.7491 -11.3397 -11.1360 -11.1332 -11.1281 -11.0841 -11.0746
   -10.0066  -9.9172  -9.8256  -9.7884  -9.7381  -9.6952  -9.6367  -9.5769
    -9.4978  -9.4813  -9.4662  -9.4285  -9.4010  -9.3601  -9.3292  -9.2867
    -9.2605  -9.2061  -9.1991  -9.1426  -9.1317  -9.0948  -9.0857  -9.0663
    -9.0520  -9.0027  -8.9768  -8.7449  -8.2286  -7.9198  -7.7190  -7.6284
    -7.5967  -7.5285  -7.4405  -7.1711  -6.9403  -6.9303  -6.7276  -6.7211
    -6.1036  -6.0516  -5.9391  -5.7783  -5.6838  -5.6048  -5.5364  -5.4587
    -5.4193  -5.4153  -5.2951  -5.2362  -5.2184  -5.1777  -5.0450  -4.5088
    -4.2024  -4.1100  -3.6729  -3.4785  -3.3089  -3.2652  -3.1580  -2.8597
    -2.7160  -2.5997  -2.5599  -2.5119  -2.4082  -2.2779  -2.1358  -2.0870
    -1.0949  -1.0488  -1.0229  -0.9770  -0.8367  -0.7528  -0.6803  -0.6412
    -0.6023  -0.5430  -0.5237  -0.4812  -0.1163  -0.0856  -0.0519   0.0047
     0.0388   0.0720   0.0866   0.1036   0.1372   0.1688   0.2269   0.2599
     0.3009   0.3732   0.4050   0.4487   0.4757   0.5052   0.5453   0.5725
     0.6329   0.6519   0.6800   0.7349   0.7527   0.7653   0.7790   0.7952
     0.8387   0.8676   0.8979   0.9455   0.9556   0.9723   1.0106   1.0322
     1.0389   1.0522   1.0735   1.0871   1.1194   1.1343   1.1440   1.1513
     1.1578   1.1823   1.2030   1.2211   1.2485   1.2835   1.2922   1.3304
     1.3607   1.3808   1.4148   1.4291   1.4391   1.4683   1.5052   1.5328

          k = 0.1250-0.3750-0.3750 (312762 PWs)   bands (ev):

   -20.0033 -18.9313 -18.4441 -18.3628 -18.2271 -17.9381 -17.0682 -16.8990
   -14.6157 -14.6073 -14.5857 -14.5820 -14.5752 -14.5012 -14.4986 -14.4870
   -14.4746 -14.4695 -14.4691 -14.4667 -14.4646 -14.4615 -14.4613 -14.4575
   -14.4504 -14.4397 -14.4382 -14.4319 -14.4303 -14.4297 -14.4266 -14.4257
   -14.4253 -14.4242 -14.4215 -14.4201 -14.4158 -14.4002 -14.3951 -14.3909
   -14.3831 -14.3820 -14.3790 -14.3461 -14.3365 -14.2868 -14.2836 -14.2786
   -11.8640 -11.7491 -11.3397 -11.1360 -11.1332 -11.1281 -11.0841 -11.0746
   -10.0068  -9.9124  -9.8443  -9.7702  -9.7286  -9.7113  -9.6363  -9.5713
    -9.5021  -9.4830  -9.4640  -9.4298  -9.4003  -9.3572  -9.3311  -9.2880
    -9.2591  -9.2149  -9.1900  -9.1415  -9.1316  -9.0986  -9.0844  -9.0647
    -9.0523  -9.0031  -8.9769  -8.7449  -8.2286  -7.9198  -7.7190  -7.6284
    -7.5967  -7.5285  -7.4405  -7.1711  -6.9402  -6.9303  -6.7274  -6.7213
    -6.1034  -6.0516  -5.9342  -5.7953  -5.6721  -5.6064  -5.5259  -5.4569
    -5.4195  -5.4123  -5.3357  -5.2326  -5.1961  -5.1651  -5.0560  -4.5088
    -4.2024  -4.1100  -3.6728  -3.4786  -3.3089  -3.2652  -3.1579  -2.8597
    -2.7161  -2.5996  -2.5594  -2.5124  -2.4081  -2.2781  -2.1359  -2.0868
    -1.0961  -1.0500  -1.0170  -0.9820  -0.8042  -0.7531  -0.7039  -0.6607
    -0.6068  -0.5529  -0.5051  -0.4850  -0.1121  -0.0828  -0.0437   0.0142
     0.0425   0.0684   0.0849   0.1192   0.1334   0.1637   0.2103   0.2451
     0.3106   0.3798   0.4165   0.4432   0.4717   0.5014   0.5473   0.5612
     0.6355   0.6650   0.6819   0.7274   0.7490   0.7577   0.7791   0.7960
     0.8428   0.8684   0.8895   0.9521   0.9699   0.9857   1.0132   1.0219
     1.0525   1.0585   1.0797   1.0836   1.0957   1.1164   1.1310   1.1443
     1.1594   1.1754   1.1934   1.2383   1.2715   1.2822   1.3079   1.3354
     1.3626   1.3893   1.4040   1.4143   1.4361   1.4529   1.5089   1.5411

          k = 0.3750 0.1250-0.3750 (312762 PWs)   bands (ev):

   -20.0033 -18.9313 -18.4441 -18.3628 -18.2271 -17.9381 -17.0682 -16.8990
   -14.6157 -14.6073 -14.5857 -14.5820 -14.5752 -14.5007 -14.4987 -14.4873
   -14.4752 -14.4713 -14.4695 -14.4660 -14.4645 -14.4615 -14.4598 -14.4574
   -14.4497 -14.4392 -14.4375 -14.4319 -14.4310 -14.4303 -14.4266 -14.4258
   -14.4253 -14.4242 -14.4215 -14.4201 -14.4158 -14.4002 -14.3951 -14.3909
   -14.3831 -14.3820 -14.3790 -14.3461 -14.3365 -14.2868 -14.2836 -14.2786
   -11.8640 -11.7491 -11.3397 -11.1359 -11.1325 -11.1286 -11.0840 -11.0751
   -10.0101  -9.8932  -9.8489  -9.7871  -9.7524  -9.6800  -9.6305  -9.5761
    -9.5143  -9.4771  -9.4692  -9.4250  -9.3930  -9.3679  -9.3225  -9.2869
    -9.2576  -9.2143  -9.1940  -9.1444  -9.1368  -9.0859  -9.0805  -9.0681
    -9.0585  -9.0028  -8.9762  -8.7452  -8.2287  -7.9199  -7.7189  -7.6285
    -7.5967  -7.5285  -7.4407  -7.1710  -6.9401  -6.9304  -6.7269  -6.7218
    -6.1033  -6.0522  -5.9413  -5.7627  -5.7037  -5.6055  -5.5373  -5.4556
    -5.4194  -5.4181  -5.2872  -5.2281  -5.2158  -5.1846  -5.0461  -4.5090
    -4.2023  -4.1099  -3.6735  -3.4786  -3.3088  -3.2642  -3.1590  -2.8597
    -2.7152  -2.5995  -2.5602  -2.5114  -2.4087  -2.2781  -2.1357  -2.0865
    -1.1299  -1.0621  -1.0185  -0.9829  -0.8157  -0.7224  -0.7047  -0.6498
    -0.5945  -0.5362  -0.5121  -0.4671  -0.1008  -0.0843  -0.0656  -0.0162
     0.0414   0.0667   0.1015   0.1157   0.1576   0.1801   0.2019   0.2498
     0.2996   0.3442   0.4060   0.4384   0.4851   0.5064   0.5322   0.5625
     0.6464   0.6682   0.6826   0.7225   0.7340   0.7637   0.7868   0.8137
     0.8462   0.8775   0.8943   0.9268   0.9561   0.9732   0.9964   1.0055
     1.0401   1.0543   1.0678   1.0843   1.1078   1.1155   1.1378   1.1454
     1.1747   1.2086   1.2349   1.2394   1.2637   1.2788   1.3171   1.3440
     1.3566   1.3792   1.4040   1.4230   1.4457   1.4703   1.4956   1.5395

          k =-0.3750-0.1250-0.3750 (312762 PWs)   bands (ev):

   -20.0033 -18.9313 -18.4441 -18.3628 -18.2271 -17.9381 -17.0682 -16.8990
   -14.6157 -14.6073 -14.5857 -14.5820 -14.5752 -14.5007 -14.4987 -14.4873
   -14.4752 -14.4713 -14.4696 -14.4660 -14.4645 -14.4615 -14.4598 -14.4574
   -14.4497 -14.4392 -14.4375 -14.4319 -14.4310 -14.4303 -14.4266 -14.4258
   -14.4253 -14.4242 -14.4215 -14.4201 -14.4158 -14.4002 -14.3951 -14.3909
   -14.3831 -14.3820 -14.3790 -14.3461 -14.3365 -14.2868 -14.2836 -14.2786
   -11.8640 -11.7491 -11.3397 -11.1359 -11.1325 -11.1286 -11.0840 -11.0751
   -10.0095  -9.8946  -9.8432  -9.8035  -9.7391  -9.6813  -9.6335  -9.5626
    -9.5290  -9.4776  -9.4641  -9.4251  -9.3938  -9.3668  -9.3239  -9.2924
    -9.2470  -9.2192  -9.1954  -9.1437  -9.1357  -9.0855  -9.0824  -9.0667
    -9.0587  -9.0030  -8.9760  -8.7452  -8.2287  -7.9199  -7.7189  -7.6285
    -7.5967  -7.5285  -7.4407  -7.1710  -6.9401  -6.9304  -6.7272  -6.7215
    -6.1034  -6.0518  -5.9364  -5.7831  -5.6843  -5.6042  -5.5517  -5.4456
    -5.4192  -5.4162  -5.2981  -5.2363  -5.2018  -5.1756  -5.0533  -4.5089
    -4.2023  -4.1099  -3.6735  -3.4788  -3.3087  -3.2643  -3.1590  -2.8598
    -2.7151  -2.5995  -2.5606  -2.5110  -2.4087  -2.2780  -2.1357  -2.0867
    -1.1258  -1.0604  -1.0141  -0.9928  -0.8062  -0.7476  -0.6836  -0.6649
    -0.5894  -0.5477  -0.4938  -0.4642  -0.1211  -0.0935  -0.0510  -0.0071
     0.0410   0.0584   0.0930   0.1230   0.1546   0.1910   0.2138   0.2379
     0.3101   0.3385   0.4085   0.4387   0.4805   0.5175   0.5461   0.5688
     0.6263   0.6455   0.6915   0.7173   0.7397   0.7555   0.7897   0.8216
     0.8523   0.8687   0.8892   0.9315   0.9547   0.9702   0.9823   1.0133
     1.0308   1.0524   1.0758   1.0792   1.1102   1.1191   1.1451   1.1588
     1.1823   1.2094   1.2143   1.2541   1.2654   1.2758   1.3154   1.3336
     1.3518   1.3875   1.4022   1.4261   1.4439   1.4691   1.4988   1.5404

          k = 0.3750-0.1250 0.3750 (312762 PWs)   bands (ev):

   -20.0033 -18.9313 -18.4441 -18.3628 -18.2271 -17.9381 -17.0682 -16.8990
   -14.6157 -14.6073 -14.5857 -14.5820 -14.5752 -14.5007 -14.4987 -14.4873
   -14.4752 -14.4713 -14.4695 -14.4660 -14.4645 -14.4615 -14.4598 -14.4574
   -14.4497 -14.4392 -14.4375 -14.4319 -14.4310 -14.4303 -14.4266 -14.4258
   -14.4253 -14.4242 -14.4215 -14.4201 -14.4158 -14.4002 -14.3951 -14.3909
   -14.3831 -14.3820 -14.3790 -14.3461 -14.3365 -14.2868 -14.2836 -14.2786
   -11.8640 -11.7491 -11.3397 -11.1360 -11.1330 -11.1280 -11.0844 -11.0747
   -10.0101  -9.9008  -9.8259  -9.8089  -9.7447  -9.6806  -9.6286  -9.5790
    -9.5158  -9.4775  -9.4668  -9.4224  -9.3976  -9.3658  -9.3264  -9.2888
    -9.2399  -9.2266  -9.1969  -9.1430  -9.1364  -9.0846  -9.0802  -9.0687
    -9.0586  -9.0028  -8.9760  -8.7452  -8.2287  -7.9199  -7.7189  -7.6284
    -7.5967  -7.5285  -7.4407  -7.1711  -6.9401  -6.9304  -6.7272  -6.7215
    -6.1036  -6.0517  -5.9380  -5.7845  -5.6784  -5.6061  -5.5433  -5.4580
    -5.4200  -5.4136  -5.2980  -5.2368  -5.2021  -5.1757  -5.0510  -4.5089
    -4.2023  -4.1099  -3.6735  -3.4787  -3.3088  -3.2643  -3.1590  -2.8598
    -2.7152  -2.5996  -2.5608  -2.5109  -2.4086  -2.2779  -2.1357  -2.0868
    -1.1312  -1.0612  -1.0098  -0.9901  -0.8100  -0.7457  -0.6789  -0.6670
    -0.5890  -0.5528  -0.4886  -0.4606  -0.1230  -0.0918  -0.0663  -0.0087
     0.0514   0.0689   0.0981   0.1062   0.1572   0.1859   0.2059   0.2360
     0.3185   0.3437   0.4164   0.4436   0.4795   0.5162   0.5506   0.5633
     0.6260   0.6500   0.6787   0.7127   0.7295   0.7656   0.7908   0.8163
     0.8481   0.8666   0.8855   0.9342   0.9497   0.9764   0.9977   1.0175
     1.0313   1.0469   1.0707   1.0908   1.1160   1.1302   1.1330   1.1474
     1.1742   1.1991   1.2247   1.2513   1.2621   1.2714   1.3264   1.3427
     1.3629   1.3790   1.3970   1.4165   1.4456   1.4718   1.5095   1.5382

          k =-0.3750 0.1250 0.3750 (312762 PWs)   bands (ev):

   -20.0033 -18.9313 -18.4441 -18.3628 -18.2271 -17.9381 -17.0682 -16.8990
   -14.6157 -14.6073 -14.5857 -14.5820 -14.5752 -14.5007 -14.4987 -14.4873
   -14.4752 -14.4713 -14.4696 -14.4660 -14.4645 -14.4615 -14.4598 -14.4574
   -14.4497 -14.4392 -14.4375 -14.4319 -14.4310 -14.4303 -14.4266 -14.4258
   -14.4253 -14.4242 -14.4215 -14.4201 -14.4158 -14.4002 -14.3951 -14.3909
   -14.3831 -14.3820 -14.3790 -14.3461 -14.3365 -14.2868 -14.2836 -14.2786
   -11.8640 -11.7491 -11.3397 -11.1360 -11.1330 -11.1280 -11.0844 -11.0747
   -10.0110  -9.8851  -9.8591  -9.7923  -9.7395  -9.6832  -9.6335  -9.5642
    -9.5294  -9.4779  -9.4631  -9.4234  -9.3982  -9.3657  -9.3228  -9.2899
    -9.2493  -9.2206  -9.1924  -9.1442  -9.1368  -9.0863  -9.0808  -9.0666
    -9.0586  -9.0032  -8.9760  -8.7452  -8.2287  -7.9199  -7.7189  -7.6285
    -7.5968  -7.5285  -7.4407  -7.1711  -6.9401  -6.9304  -6.7269  -6.7218
    -6.1035  -6.0519  -5.9401  -5.7622  -5.7062  -5.6060  -5.5432  -5.4515
    -5.4193  -5.4162  -5.2872  -5.2269  -5.2132  -5.1835  -5.0500  -4.5089
    -4.2023  -4.1099  -3.6734  -3.4787  -3.3088  -3.2643  -3.1590  -2.8597
    -2.7152  -2.5995  -2.5602  -2.5115  -2.4086  -2.2782  -2.1357  -2.0865
    -1.1273  -1.0558  -1.0170  -0.9913  -0.8147  -0.7216  -0.7039  -0.6534
    -0.5922  -0.5396  -0.5267  -0.4581  -0.0979  -0.0836  -0.0606  -0.0097
     0.0324   0.0677   0.0901   0.1210   0.1466   0.1913   0.2009   0.2451
     0.3086   0.3478   0.4212   0.4421   0.4826   0.5169   0.5270   0.5600
     0.6392   0.6610   0.6848   0.7151   0.7260   0.7548   0.7874   0.8184
     0.8507   0.8708   0.8858   0.9340   0.9472   0.9775   0.9848   1.0215
     1.0300   1.0530   1.0803   1.0911   1.1029   1.1249   1.1361   1.1605
     1.1770   1.2041   1.2184   1.2417   1.2642   1.2782   1.3202   1.3375
     1.3605   1.3816   1.3999   1.4187   1.4494   1.4651   1.5022   1.5452

          k = 0.3750-0.3750 0.1250 (312762 PWs)   bands (ev):

   -20.0033 -18.9313 -18.4441 -18.3628 -18.2271 -17.9381 -17.0682 -16.8990
   -14.6156 -14.6073 -14.5857 -14.5820 -14.5752 -14.5006 -14.4988 -14.4872
   -14.4764 -14.4701 -14.4689 -14.4657 -14.4645 -14.4615 -14.4611 -14.4574
   -14.4497 -14.4388 -14.4378 -14.4319 -14.4308 -14.4303 -14.4266 -14.4257
   -14.4253 -14.4242 -14.4215 -14.4201 -14.4158 -14.4002 -14.3951 -14.3909
   -14.3831 -14.3820 -14.3790 -14.3461 -14.3366 -14.2868 -14.2836 -14.2786
   -11.8640 -11.7491 -11.3397 -11.1375 -11.1321 -11.1274 -11.0848 -11.0743
   -10.0061  -9.9073  -9.8348  -9.7791  -9.7395  -9.7028  -9.6523  -9.5749
    -9.5045  -9.4815  -9.4624  -9.4106  -9.3998  -9.3524  -9.3311  -9.3018
    -9.2602  -9.2068  -9.1902  -9.1487  -9.1294  -9.0911  -9.0792  -9.0706
    -9.0527  -9.0038  -8.9796  -8.7450  -8.2287  -7.9199  -7.7191  -7.6286
    -7.5966  -7.5286  -7.4406  -7.1711  -6.9401  -6.9302  -6.7265  -6.7225
    -6.1031  -6.0521  -5.9376  -5.7741  -5.6948  -5.6050  -5.5446  -5.4476
    -5.4221  -5.4179  -5.2864  -5.2411  -5.2106  -5.1770  -5.0481  -4.5089
    -4.2024  -4.1100  -3.6728  -3.4788  -3.3093  -3.2651  -3.1581  -2.8599
    -2.7161  -2.6000  -2.5603  -2.5124  -2.4086  -2.2786  -2.1365  -2.0873
    -1.0853  -1.0265  -1.0110  -0.9893  -0.8570  -0.7461  -0.6995  -0.6335
    -0.6058  -0.5489  -0.5004  -0.4700  -0.1289  -0.1019  -0.0393   0.0089
     0.0318   0.0691   0.0870   0.1391   0.1669   0.1838   0.2089   0.2242
     0.2793   0.3654   0.3898   0.4158   0.4838   0.5026   0.5703   0.5915
     0.6309   0.6548   0.6792   0.7143   0.7336   0.7491   0.7602   0.7887
     0.8300   0.8516   0.8851   0.9221   0.9337   0.9679   0.9935   1.0200
     1.0422   1.0568   1.0845   1.0955   1.1021   1.1376   1.1470   1.1623
     1.1870   1.1993   1.2114   1.2481   1.2630   1.2931   1.3274   1.3616
     1.3736   1.3954   1.4252   1.4324   1.4491   1.4563   1.4892   1.5326

          k =-0.3750-0.3750-0.1250 (312762 PWs)   bands (ev):

   -20.0033 -18.9313 -18.4441 -18.3628 -18.2271 -17.9381 -17.0682 -16.8990
   -14.6156 -14.6073 -14.5857 -14.5820 -14.5752 -14.5006 -14.4988 -14.4872
   -14.4764 -14.4701 -14.4689 -14.4656 -14.4645 -14.4615 -14.4611 -14.4574
   -14.4497 -14.4388 -14.4378 -14.4319 -14.4308 -14.4303 -14.4266 -14.4257
   -14.4253 -14.4242 -14.4215 -14.4201 -14.4158 -14.4002 -14.3951 -14.3909
   -14.3831 -14.3820 -14.3790 -14.3461 -14.3366 -14.2868 -14.2836 -14.2786
   -11.8640 -11.7491 -11.3397 -11.1374 -11.1318 -11.1278 -11.0844 -11.0747
   -10.0046  -9.9052  -9.8438  -9.7802  -9.7398  -9.6897  -9.6588  -9.5693
    -9.5119  -9.4817  -9.4598  -9.4137  -9.3969  -9.3497  -9.3318  -9.3055
    -9.2601  -9.2051  -9.1906  -9.1485  -9.1285  -9.0922  -9.0809  -9.0685
    -9.0528  -9.0041  -8.9797  -8.7450  -8.2287  -7.9199  -7.7191  -7.6286
    -7.5966  -7.5286  -7.4406  -7.1711  -6.9401  -6.9302  -6.7265  -6.7225
    -6.1030  -6.0525  -5.9348  -5.7675  -5.7106  -5.6053  -5.5399  -5.4511
    -5.4202  -5.4117  -5.2893  -5.2343  -5.2119  -5.1811  -5.0490  -4.5089
    -4.2024  -4.1100  -3.6727  -3.4789  -3.3092  -3.2651  -3.1581  -2.8599
    -2.7160  -2.6000  -2.5601  -2.5126  -2.4087  -2.2787  -2.1366  -2.0873
    -1.0611  -1.0426  -1.0305  -0.9765  -0.8411  -0.7576  -0.7095  -0.6435
    -0.5997  -0.5397  -0.5268  -0.4487  -0.1217  -0.0819  -0.0667   0.0134
     0.0325   0.0762   0.0819   0.1270   0.1585   0.1845   0.2258   0.2479
     0.2798   0.3365   0.3655   0.4559   0.4891   0.5138   0.5478   0.5915
     0.6107   0.6562   0.6727   0.7168   0.7317   0.7468   0.7866   0.7974
[...]
    -9.1761  -9.1638  -9.1548  -9.1459  -9.1381  -9.1334  -9.1287  -9.1172
    -9.0997  -9.0866  -9.0767  -9.0580  -9.0491  -9.0412  -9.0297  -9.0178
    -7.2544  -7.2483  -7.2459  -7.2367  -7.2318  -7.2234  -7.2175  -7.1815
    -7.1513  -7.1482  -7.1393  -7.1330  -7.1198  -7.0931  -7.0599  -7.0411
    -5.5647  -5.3833  -5.3677  -5.3335  -5.2005  -5.1831  -5.1764  -5.1345
    -5.1148  -5.1089  -5.0883  -5.0694  -5.0648  -5.0590  -5.0502  -4.9280
    -2.9810  -2.9766  -2.9736  -2.9669  -2.9601  -2.9527  -2.9471  -2.9282
    -2.9186  -2.8932  -2.8905  -2.8818  -2.8731  -2.8590  -2.8397  -2.8343
    -0.6505  -0.5819  -0.5539  -0.5319  -0.5178  -0.4361  -0.3943  -0.3779
    -0.3553  -0.3356  -0.2661  -0.1987   0.0048   0.0644   0.0941   0.0996
     0.1701   0.1960   0.2012   0.2121   0.2853   0.2969   0.3043   0.3229
     0.5336   0.6086   0.6217   0.6604   0.6685   0.6898   0.7220   0.7341
     0.7705   0.7764   0.7910   0.8383   0.8544   0.8571   0.8800   0.9158
     1.0296   1.0576   1.0857   1.0991   1.1140   1.1591   1.1817   1.2903
     1.2949   1.3454   1.3539   1.3615   1.3749   1.3807   1.3966   1.4010
     1.4163   1.4226   1.4349   1.4474   1.4557   1.4691   1.4742   1.4794
     1.4836   1.4921   1.5000   1.5273   1.5385   1.5516   1.6399   1.6517

          k = 0.3777-0.3779-0.3827 (312804 PWs)   bands (ev):

   -17.8244 -17.8072 -17.8053 -17.7722 -17.7592 -17.7570 -17.7367 -17.7320
   -14.1790 -14.1726 -14.1710 -14.1674 -14.1635 -14.1605 -14.1598 -14.1586
   -14.1557 -14.1552 -14.1542 -14.1533 -14.1526 -14.1501 -14.1494 -14.1489
   -14.1285 -14.1266 -14.1222 -14.1214 -14.1210 -14.1150 -14.1145 -14.1115
   -14.1105 -14.1090 -14.1086 -14.1080 -14.1071 -14.1063 -14.1057 -14.1037
   -14.1033 -14.1033 -14.1032 -14.1030 -14.1010 -14.1001 -14.0986 -14.0981
   -10.7847 -10.7619 -10.7487 -10.7377 -10.7246 -10.7196 -10.7138 -10.6983
    -9.6322  -9.5677  -9.5436  -9.5255  -9.4970  -9.4782  -9.4595  -9.4186
    -9.1765  -9.1605  -9.1566  -9.1493  -9.1406  -9.1349  -9.1249  -9.1131
    -9.1021  -9.0837  -9.0773  -9.0603  -9.0477  -9.0398  -9.0322  -9.0172
    -7.2542  -7.2480  -7.2463  -7.2366  -7.2323  -7.2232  -7.2175  -7.1814
    -7.1518  -7.1476  -7.1391  -7.1332  -7.1199  -7.0932  -7.0599  -7.0411
    -5.5638  -5.3851  -5.3693  -5.3310  -5.1990  -5.1896  -5.1717  -5.1345
    -5.1147  -5.1096  -5.0890  -5.0696  -5.0630  -5.0583  -5.0503  -4.9285
    -2.9814  -2.9766  -2.9734  -2.9660  -2.9594  -2.9536  -2.9477  -2.9287
    -2.9187  -2.8948  -2.8877  -2.8823  -2.8739  -2.8584  -2.8386  -2.8354
    -0.6526  -0.5769  -0.5588  -0.5350  -0.5243  -0.4369  -0.3896  -0.3745
    -0.3583  -0.3248  -0.2639  -0.1933   0.0038   0.0618   0.0893   0.0971
     0.1655   0.1956   0.1994   0.2110   0.2856   0.2942   0.3120   0.3241
     0.5324   0.6073   0.6229   0.6576   0.6719   0.6876   0.7215   0.7361
     0.7720   0.7800   0.7887   0.8360   0.8481   0.8635   0.8787   0.9189
     1.0270   1.0602   1.0837   1.0999   1.1157   1.1656   1.1783   1.2806
     1.2997   1.3439   1.3560   1.3603   1.3743   1.3817   1.3949   1.4059
     1.4158   1.4224   1.4334   1.4474   1.4530   1.4644   1.4708   1.4810
     1.4850   1.4957   1.5031   1.5265   1.5394   1.5521   1.6426   1.6499

     highest occupied level (ev):     2.2827

!    total energy              =  -16491.01673722 Ry
     Harris-Foulkes estimate   =  -16491.01673723 Ry
     estimated scf accuracy    <       0.00000002 Ry

     total all-electron energy =   -677247.686002 Ry

     The total energy is the sum of the following terms:

     one-electron contribution =    -842.68124483 Ry
     hartree contribution      =     606.65572953 Ry
     xc contribution           =    -755.75049472 Ry
     ewald contribution        =   -1144.37459989 Ry
     DFT-D3 Dispersion         =      -0.61856344 Ry
     one-center paw contrib.   =  -14354.24756387 Ry

     convergence has been achieved in  10 iterations

     Forces acting on atoms (cartesian axes, Ry/au):

     atom    1 type  1   force =    -0.00116869    0.00194306   -0.00097331
     atom    2 type  1   force =    -0.00013927    0.00213960   -0.00042960
     atom    3 type  1   force =    -0.00057363   -0.00447508    0.00156421
     atom    4 type  1   force =     0.00506023   -0.00233084   -0.00214549
     atom    5 type  1   force =    -0.00011823    0.00221425   -0.00363700
     atom    6 type  1   force =    -0.00365689   -0.00514781    0.00112886
     atom    7 type  1   force =     0.00083209    0.00055159    0.00429519
     atom    8 type  1   force =    -0.00257283    0.00012240   -0.00124189
     atom    9 type  2   force =    -0.00102242    0.00352084   -0.00045212
     atom   10 type  2   force =     0.00415798    0.00088114   -0.00254198
     atom   11 type  2   force =    -0.00003051   -0.00035940    0.00321051
     atom   12 type  2   force =     0.00185314    0.00304044   -0.00226108
     atom   13 type  2   force =     0.00288688    0.00230666   -0.00166956
     atom   14 type  2   force =    -0.00031736   -0.00012053   -0.00108260
     atom   15 type  2   force =    -0.00053848    0.00258545   -0.00177962
     atom   16 type  2   force =     0.00419130    0.00307665   -0.00004836
     atom   17 type  2   force =    -0.00050028    0.00091974   -0.00115156
     atom   18 type  2   force =     0.00200912    0.00320959   -0.00142077
     atom   19 type  2   force =     0.00280193   -0.00024245   -0.00136263
     atom   20 type  2   force =     0.00124581   -0.00030179    0.00045836
     atom   21 type  2   force =     0.00120662    0.00209511   -0.00202206
     atom   22 type  2   force =     0.00365000   -0.00062010   -0.00048236
     atom   23 type  2   force =    -0.00038193   -0.00003441    0.00089051
     atom   24 type  2   force =     0.00291766    0.00318173   -0.00122484
     atom   25 type  2   force =     0.00410023    0.00454310   -0.00222656
     atom   26 type  2   force =     0.00077938   -0.00071531    0.00056489
     atom   27 type  2   force =     0.00003920    0.00261740    0.00028822
     atom   28 type  2   force =     0.00465254    0.00124633   -0.00044949
     atom   29 type  2   force =    -0.00040399   -0.00034275   -0.00126207
     atom   30 type  2   force =    -0.00395269    0.00317765   -0.00108996
     atom   31 type  2   force =     0.00440454    0.00074825   -0.00179548
     atom   32 type  2   force =     0.00027531    0.00020616   -0.00065891
     atom   33 type  3   force =    -0.00453434    0.00205011    0.00353076
     atom   34 type  3   force =     0.00078064    0.00071189   -0.00201109
     atom   35 type  3   force =    -0.00453214    0.00348187    0.00313501
     atom   36 type  3   force =     0.00176964    0.00043413   -0.00794904
     atom   37 type  3   force =    -0.00138581   -0.00180002    0.00149828
     atom   38 type  3   force =     0.00098944   -0.00595254    0.00004930
     atom   39 type  3   force =    -0.00299457   -0.00523915    0.00080876
     atom   40 type  3   force =     0.00262406    0.00230735   -0.00249970
     atom   41 type  4   force =    -0.00222639   -0.00446188   -0.00058520
     atom   42 type  4   force =     0.00113294    0.00031549    0.00274783
     atom   43 type  4   force =    -0.00376574   -0.00114200    0.00051329
     atom   44 type  4   force =    -0.00299751   -0.00462247    0.00154655
     atom   45 type  4   force =    -0.00288165    0.00081781    0.00248688
     atom   46 type  4   force =    -0.00394939   -0.00101319   -0.00142560
     atom   47 type  4   force =    -0.00229052   -0.00097012   -0.00162983
     atom   48 type  4   force =    -0.00565290   -0.00622341   -0.00113900
     atom   49 type  5   force =    -0.00085399   -0.00225267    0.00086507
     atom   50 type  5   force =    -0.00107470    0.00586996    0.00023951
     atom   51 type  5   force =     0.00263683   -0.00347585   -0.00189511
     atom   52 type  5   force =     0.00058029   -0.00519476    0.00567162
     atom   53 type  5   force =     0.00028869    0.00317476   -0.00543813
     atom   54 type  5   force =     0.00121800    0.00057929    0.00018901
     atom   55 type  5   force =     0.00084055   -0.00043474    0.00225261
     atom   56 type  5   force =     0.00255512   -0.00217448    0.00094143
     atom   57 type  5   force =    -0.00366974   -0.00221850    0.00102766
     atom   58 type  5   force =    -0.00198506    0.00351165   -0.00095057
     atom   59 type  5   force =    -0.00240219   -0.00403141    0.00168243
     atom   60 type  5   force =    -0.00125938   -0.00043740   -0.00236722
     atom   61 type  5   force =     0.00367559   -0.00553849   -0.00110713
     atom   62 type  5   force =     0.00163297    0.00170158    0.00245329
     atom   63 type  5   force =    -0.00014189    0.00095763   -0.00101386
     atom   64 type  5   force =     0.00003666   -0.00310043    0.00146707
     atom   65 type  5   force =    -0.00341477   -0.00109581   -0.00324698
     atom   66 type  5   force =     0.00273842    0.00061226    0.00154282
     atom   67 type  5   force =    -0.00282436    0.00225562   -0.00670561
     atom   68 type  5   force =    -0.00368738    0.00105496    0.00218721
     atom   69 type  5   force =     0.00326660   -0.00464499    0.00820730
     atom   70 type  5   force =    -0.00008997    0.00262333   -0.00102576
     atom   71 type  5   force =    -0.00217481    0.00182319    0.00344575
     atom   72 type  5   force =     0.00238234   -0.00230738    0.00168678
     atom   73 type  5   force =     0.00018990   -0.00118859    0.00006134
     atom   74 type  5   force =     0.00056604    0.00041700   -0.00008673
     atom   75 type  5   force =     0.00159400   -0.00230313    0.00134409
     atom   76 type  5   force =     0.00020196    0.00150424    0.00207512
     atom   77 type  5   force =    -0.00482481   -0.00051542   -0.00184012
     atom   78 type  5   force =     0.00221061   -0.00048990   -0.00299378
     atom   79 type  5   force =    -0.00340572   -0.00246955    0.00328312
     atom   80 type  5   force =    -0.00186826    0.00425496   -0.00003423
     atom   81 type  5   force =     0.00573751    0.00026822   -0.00119830
     atom   82 type  5   force =     0.00003805    0.00079832    0.00211215
     atom   83 type  5   force =    -0.00200769    0.00339089    0.00073208
     atom   84 type  5   force =     0.00074660   -0.00369155   -0.00095201
     atom   85 type  5   force =    -0.00561155   -0.00341451   -0.00295198
     atom   86 type  5   force =     0.00089934    0.00219086    0.00305429
     atom   87 type  5   force =     0.00329886    0.00229736    0.00292738
     atom   88 type  5   force =     0.00412752    0.00323502   -0.00174500
     atom   89 type  5   force =    -0.00017686    0.00065554    0.00103266
     atom   90 type  5   force =    -0.00141912   -0.00159086    0.00082360
     atom   91 type  5   force =     0.00212438   -0.00025353   -0.00068709
     atom   92 type  5   force =    -0.00366517    0.00429733    0.00484543
     atom   93 type  5   force =     0.00174363   -0.00598301    0.00266602
     atom   94 type  5   force =     0.00042846    0.00286042   -0.00557053
     atom   95 type  5   force =    -0.00071418   -0.00061043    0.00266234
     atom   96 type  5   force =    -0.00025984    0.00075252    0.00226231

     Total force =     0.044408     Total SCF correction =     0.000419


     Computing stress (Cartesian axis) and pressure

          total   stress  (Ry/bohr**3)                   (kbar)     P=    2.05
   0.00000926   0.00001895   0.00000328          1.36      2.79      0.48
   0.00001895   0.00001788   0.00000303          2.79      2.63      0.45
   0.00000328   0.00000303   0.00001467          0.48      0.45      2.16


     number of scf cycles    =  15
     number of bfgs steps    =  14

     enthalpy old            =  -16491.0134181848 Ry
     enthalpy new            =  -16491.0167372219 Ry

     CASE: enthalpy_new < enthalpy_old

     new trust radius        =       0.0722742806 bohr
     new conv_thr            =       0.0000000332 Ry

     new unit-cell volume =  13595.53387 a.u.^3 (  2014.65024 Ang^3 )
     density =      4.09302 g/cm^3

CELL_PARAMETERS (alat= 24.15259000)
   0.992982500   0.000000000   0.000000000
   0.000000000   0.992519099   0.000000000
   0.000000000   0.000000000   0.979094637

ATOMIC_POSITIONS (crystal)
Pb      -0.000133355  -0.003463364   0.001310932
Pb      -0.001714693  -0.004383443   0.501767558
Pb      -0.002323767   0.499156010   0.000895730
Pb      -0.005695604   0.496884371   0.501638011
Pb       0.499522320  -0.007057204   0.003051197
Pb       0.500172007   0.000724578   0.502382121
Pb       0.497085240   0.493775295  -0.003108772
Pb       0.496960121   0.499010761   0.498333895
I        0.251252397   0.016129275  -0.002568019
I        0.014320123   0.249483448  -0.000883818
I        0.000995095   0.005769267   0.248748898
I        0.248641420   0.010484872   0.499884919
I        0.020095966   0.249528282   0.501196563
I       -0.003661881   0.007481640   0.750822575
I        0.250840649   0.519146772  -0.001469048
I        0.011590137   0.748726207  -0.005479784
I        0.008866477   0.496929675   0.250639738
I        0.250056613   0.520708807   0.497494592
I        0.012231025   0.749257437   0.496090576
I       -0.002785810   0.507602874   0.749745593
I        0.750747466   0.017392889   0.000275421
I        0.515006321   0.249091786  -0.004123489
I        0.503165405   0.002656627   0.250327279
I        0.748242250   0.020307333   0.497958840
I        0.508430334   0.248520138   0.498946452
I        0.497118365   0.009372816   0.751098933
I        0.750024009   0.519714129  -0.006514144
I        0.512876650   0.748168832  -0.005162917
I        0.505747227   0.501736099   0.248649084
I        0.751380542   0.511110475   0.495305792
I        0.517655034   0.749274303   0.500319182
I        0.498881114   0.504042847   0.748138907
C        0.289309107   0.290697228   0.251436437
C        0.287296191   0.291093607   0.749202059
C        0.291615212   0.787659985   0.248626955
C        0.290885756   0.786533629   0.753817587
C        0.790639404   0.289980978   0.248930138
C        0.788734781   0.291104984   0.752805416
C        0.790793872   0.786908849   0.250853169
C        0.784712721   0.789517407   0.749846274
N        0.206076441   0.205038882   0.254222159
N        0.205251273   0.204460724   0.751085630
N        0.207060655   0.703400819   0.252687579
N        0.204482548   0.704907580   0.751787105
N        0.708045777   0.204260206   0.249407143
N        0.706129477   0.204799859   0.752941647
N        0.704207947   0.705231568   0.251568175
N        0.701764802   0.704207974   0.752861277
H        0.184042875   0.181084755   0.178377411
H        0.138159196   0.228460291   0.293373493
H        0.230668005   0.139058908   0.295994443
H        0.310542351   0.306778072   0.167850586
H        0.356872067   0.262065994   0.298017382
H        0.256069880   0.361980037   0.287912884
H        0.184645692   0.180095650   0.674737146
H        0.136381598   0.228377746   0.788407945
H        0.232725747   0.139390976   0.792748742
H        0.306490217   0.309217424   0.666048037
H        0.358913781   0.264325710   0.789643633
H        0.256600339   0.360254208   0.791337446
H        0.186247840   0.676365961   0.177444533
H        0.138324844   0.730414988   0.287760189
H        0.228989363   0.638724729   0.298563276
H        0.302726618   0.812492139   0.165523429
H        0.365218185   0.755882406   0.281529540
H        0.264972759   0.854743791   0.296648849
H        0.181861538   0.685619219   0.674926799
H        0.138232948   0.729439835   0.792170071
H        0.226641459   0.635213712   0.787525642
H        0.307730814   0.810381027   0.671679666
H        0.361548593   0.750798700   0.789076945
H        0.264192071   0.854711432   0.800781596
H        0.682532757   0.185328209   0.173436099
H        0.641906409   0.225426253   0.292238399
H        0.734489752   0.135308517   0.284204094
H        0.805747582   0.312944493   0.165984426
H        0.863023946   0.259839356   0.285403316
H        0.760835475   0.356600258   0.295760950
H        0.682847642   0.186369483   0.675963102
H        0.639183880   0.224062437   0.795927093
H        0.731715811   0.135191347   0.787488875
H        0.810632520   0.307510577   0.669712568
H        0.857197271   0.262333337   0.797526639
H        0.755142355   0.361924233   0.790077535
H        0.681184510   0.687094230   0.174689145
H        0.637610975   0.729261987   0.292365141
H        0.725555299   0.634742822   0.286989207
H        0.810162659   0.802698482   0.167412363
H        0.859170178   0.755298764   0.293042261
H        0.763028439   0.859127419   0.289423991
H        0.677952059   0.680973965   0.677279556
H        0.634308161   0.727544814   0.793067537
H        0.728124601   0.638047170   0.793281892
H        0.800681824   0.809349992   0.666397278
H        0.857038663   0.759820604   0.787172761
H        0.755619284   0.858821426   0.792967543



     Writing output data file MAPbI_vcrelax_PAW.save/
     NEW-OLD atomic charge density approx. for the potential
     extrapolated charge  399.75097, renormalised to  400.00000

     total cpu time spent up to now is  1106653.7 secs

     Self-consistent Calculation

     iteration #  1     ecut=   120.00 Ry     beta= 0.70
     Davidson diagonalization with overlap
     ethr =  1.00E-06,  avg # of iterations =  5.4

     total cpu time spent up to now is  1127772.6 secs

     total energy              =  -16491.01476921 Ry
     Harris-Foulkes estimate   =  -16491.35519149 Ry
     estimated scf accuracy    <       0.00918345 Ry

     iteration #  2     ecut=   120.00 Ry     beta= 0.70
     Davidson diagonalization with overlap
     ethr =  2.30E-06,  avg # of iterations =  2.0

     total cpu time spent up to now is  1142052.5 secs

     total energy              =  -16491.01898333 Ry
     Harris-Foulkes estimate   =  -16491.01867853 Ry
     estimated scf accuracy    <       0.00275779 Ry

     iteration #  3     ecut=   120.00 Ry     beta= 0.70
     Davidson diagonalization with overlap
     ethr =  6.89E-07,  avg # of iterations =  2.0

     total cpu time spent up to now is  1154416.6 secs

     total energy              =  -16491.01969764 Ry
     Harris-Foulkes estimate   =  -16491.01945046 Ry
     estimated scf accuracy    <       0.00096677 Ry

     iteration #  4     ecut=   120.00 Ry     beta= 0.70
     Davidson diagonalization with overlap
     ethr =  2.42E-07,  avg # of iterations =  2.0

     total cpu time spent up to now is  1163217.3 secs

     total energy              =  -16491.02003366 Ry
     Harris-Foulkes estimate   =  -16491.01973864 Ry
     estimated scf accuracy    <       0.00061803 Ry

     iteration #  5     ecut=   120.00 Ry     beta= 0.70
     Davidson diagonalization with overlap
     ethr =  1.55E-07,  avg # of iterations =  2.0

     total cpu time spent up to now is  1173378.5 secs

     total energy              =  -16491.02017152 Ry
     Harris-Foulkes estimate   =  -16491.02004913 Ry
     estimated scf accuracy    <       0.00023291 Ry

     iteration #  6     ecut=   120.00 Ry     beta= 0.70
     Davidson diagonalization with overlap
     ethr =  5.82E-08,  avg # of iterations =  2.0

     total cpu time spent up to now is  1184527.4 secs

     total energy              =  -16491.02018924 Ry
     Harris-Foulkes estimate   =  -16491.02019018 Ry
     estimated scf accuracy    <       0.00000598 Ry

     iteration #  7     ecut=   120.00 Ry     beta= 0.70
     Davidson diagonalization with overlap
     ethr =  1.50E-09,  avg # of iterations =  3.4

     total cpu time spent up to now is  1200692.4 secs

     total energy              =  -16491.02019161 Ry
     Harris-Foulkes estimate   =  -16491.02019186 Ry
     estimated scf accuracy    <       0.00000054 Ry

     iteration #  8     ecut=   120.00 Ry     beta= 0.70
     Davidson diagonalization with overlap
