
     Program PWSCF v.6.4 starts on 10Feb2020 at 22:24: 4 

     This program is part of the open-source Quantum ESPRESSO suite
     for quantum simulation of materials; please cite
         "P. Giannozzi et al., J. Phys.:Condens. Matter 21 395502 (2009);
         "P. Giannozzi et al., J. Phys.:Condens. Matter 29 465901 (2017);
          URL http://www.quantum-espresso.org", 
     in publications or presentations arising from this work. More details at
     http://www.quantum-espresso.org/quote

     Parallel version (MPI), running on    48 processors

     MPI processes distributed on     1 nodes
     K-points division:     npool     =       4
     R & G space division:  proc/nbgrp/npool/nimage =      12
     Waiting for input...
     Reading input from standard input
     Message from routine read_cards :
     DEPRECATED: no units specified in CELL_PARAMETERS card

     Current dimensions of program PWSCF are:
     Max number of different atomic species (ntypx) = 10
     Max number of k-points (npk) =  40000
     Max angular momentum in pseudopotentials (lmaxx) =  3
               file Pb.pbe-dn-kjpaw_psl.1.0.0.UPF: wavefunction(s)  6S 6P 5D renormalized
               file I.pbe-n-kjpaw_psl.1.0.0.UPF: wavefunction(s)  5S renormalized
               file C.pbe-n-kjpaw_psl.1.0.0.UPF: wavefunction(s)  2S 2P renormalized
               file N.pbe-n-kjpaw_psl.1.0.0.UPF: wavefunction(s)  2S renormalized
               file H.pbe-kjpaw_psl.1.0.0.UPF: wavefunction(s)  1S renormalized

     --------------------------------------------
     Parameters for DFT-D3 Dispersion Correction:
     --------------------------------------------
       Reference C6 values for interpolation: 

         atom   Coordination number   C6
         H          0.912             6.05
         H          0.000            15.18
         C          0.000            98.23
         C          0.987            86.49
         C          1.998            58.72
         C          2.999            51.56
         C          3.984            36.41
         N          0.000            50.54
         N          0.994            44.25
         N          2.014            39.35
         N          2.990            31.16
         I          0.000           703.93
         I          0.997           717.00
         Pb         0.000          1477.63
         Pb         0.938          1266.00
         Pb         1.936          1088.91
         Pb         2.908          1048.37
         Pb         3.910           910.57

       Values used:

         atom   Coordination number  R0_AB[au]  C6      C8
         Pb         4.855            4.041    910.57 144158.31
         Pb         4.898            4.041    910.57 144158.25
         Pb         4.946            4.041    910.57 144158.21
         Pb         4.912            4.041    910.57 144158.24
         Pb         4.906            4.041    910.57 144158.24
         Pb         4.903            4.041    910.57 144158.25
         Pb         4.935            4.041    910.57 144158.22
         Pb         4.961            4.041    910.57 144158.20
         I          1.954            3.532    717.00  65856.00
         I          1.910            3.532    717.00  65855.99
         I          2.014            3.532    717.00  65856.00
         I          1.968            3.532    717.00  65856.00
         I          1.916            3.532    717.00  65855.99
         I          1.976            3.532    717.00  65856.00
         I          1.973            3.532    717.00  65856.00
         I          1.927            3.532    717.00  65855.99
         I          2.014            3.532    717.00  65856.00
         I          1.948            3.532    717.00  65855.99
         I          1.977            3.532    717.00  65856.00
         I          2.033            3.532    717.00  65856.00
         I          1.981            3.532    717.00  65856.00
         I          1.987            3.532    717.00  65856.00
         I          1.989            3.532    717.00  65856.00
         I          1.990            3.532    717.00  65856.00
         I          1.946            3.532    717.00  65855.99
         I          2.016            3.532    717.00  65856.00
         I          2.026            3.532    717.00  65856.00
         I          1.961            3.532    717.00  65856.00
         I          1.999            3.532    717.00  65856.00
         I          1.996            3.532    717.00  65856.00
         I          1.982            3.532    717.00  65856.00
         I          2.063            3.532    717.00  65856.00
         C          4.025            2.750     36.61   1058.81
         C          4.025            2.750     36.61   1058.81
         C          4.021            2.750     36.62   1059.01
         C          4.022            2.750     36.61   1058.94
         C          4.024            2.750     36.61   1058.84
         C          4.027            2.750     36.61   1058.71
         C          4.023            2.750     36.61   1058.88
         C          4.022            2.750     36.61   1058.94
         N          4.052            2.478     31.16    687.49
         N          4.045            2.478     31.16    687.49
         N          4.044            2.478     31.16    687.49
         N          4.045            2.478     31.16    687.49
         N          4.048            2.478     31.16    687.49
         N          4.045            2.478     31.16    687.49
         N          4.048            2.478     31.16    687.49
         N          4.042            2.478     31.16    687.49
         H          1.064            2.062      6.13     74.15
         H          1.072            2.062      6.13     74.10
         H          1.017            2.062      6.17     74.54
         H          1.007            2.062      6.17     74.64
         H          1.005            2.062      6.18     74.66
         H          1.006            2.062      6.18     74.66
         H          1.046            2.062      6.14     74.28
         H          1.017            2.062      6.17     74.55
         H          1.059            2.062      6.14     74.19
         H          1.006            2.062      6.18     74.65
         H          1.006            2.062      6.18     74.65
         H          1.006            2.062      6.18     74.66
         H          1.073            2.062      6.13     74.09
         H          1.017            2.062      6.17     74.55
         H          1.043            2.062      6.15     74.31
         H          1.006            2.062      6.18     74.65
         H          1.005            2.062      6.18     74.66
         H          1.005            2.062      6.18     74.66
         H          1.039            2.062      6.15     74.34
         H          1.016            2.062      6.17     74.55
         H          1.050            2.062      6.14     74.25
         H          1.012            2.062      6.17     74.59
         H          1.005            2.062      6.18     74.66
         H          1.010            2.062      6.17     74.61
         H          1.063            2.062      6.13     74.16
         H          1.014            2.062      6.17     74.57
         H          1.077            2.062      6.13     74.06
         H          1.007            2.062      6.17     74.64
         H          1.005            2.062      6.18     74.66
         H          1.007            2.062      6.18     74.65
         H          1.056            2.062      6.14     74.21
         H          1.040            2.062      6.15     74.33
         H          1.018            2.062      6.17     74.53
         H          1.006            2.062      6.18     74.65
         H          1.006            2.062      6.18     74.66
         H          1.008            2.062      6.17     74.64
         H          1.093            2.062      6.12     73.97
         H          1.056            2.062      6.14     74.21
         H          1.014            2.062      6.17     74.57
         H          1.007            2.062      6.17     74.64
         H          1.008            2.062      6.17     74.63
         H          1.005            2.062      6.18     74.66
         H          1.026            2.062      6.16     74.46
         H          1.017            2.062      6.17     74.54
         H          1.049            2.062      6.14     74.26
         H          1.005            2.062      6.18     74.66
         H          1.005            2.062      6.18     74.66
         H          1.005            2.062      6.18     74.66

         Molecular C6 ( Ry / a.u.^6 ) =   1196574.52


     Subspace diagonalization in iterative solution of the eigenvalue problem:
     a serial algorithm will be used


     Parallelization info
     --------------------
     sticks:   dense  smooth     PW     G-vecs:    dense   smooth      PW
     Min        1854    1854    478               204338   204338   26745
     Max        1855    1855    479               204339   204339   26746
     Sum       22253   22253   5737              2452061  2452061  320951



     bravais-lattice index     =            0
     lattice parameter (alat)  =      24.1526  a.u.
     unit-cell volume          =   13807.8106 (a.u.)^3
     number of atoms/cell      =           96
     number of atomic types    =            5
     number of electrons       =       400.00
     number of Kohn-Sham states=          200
     kinetic-energy cutoff     =     120.0000  Ry
     charge density cutoff     =     480.0000  Ry
     convergence threshold     =      1.0E-07
     mixing beta               =       0.7000
     number of iterations used =            8  plain     mixing
     Exchange-correlation      = SLA PW PBX PBC ( 1  4  3  4 0 0)
     nstep                     =          150


     celldm(1)=  24.152590  celldm(2)=   0.000000  celldm(3)=   0.000000
     celldm(4)=   0.000000  celldm(5)=   0.000000  celldm(6)=   0.000000

     crystal axes: (cart. coord. in units of alat)
               a(1) = (   0.998407   0.000000   0.000000 )  
               a(2) = (   0.000000   1.000030   0.000000 )  
               a(3) = (   0.000000   0.000000   0.981552 )  

     reciprocal axes: (cart. coord. in units 2 pi/alat)
               b(1) = (  1.001596  0.000000  0.000000 )  
               b(2) = (  0.000000  0.999970  0.000000 )  
               b(3) = (  0.000000  0.000000  1.018795 )  


     PseudoPot. # 1 for Pb read from file:
     ../Pseudopotential/Pb.pbe-dn-kjpaw_psl.1.0.0.UPF
     MD5 check sum: 684fc8fbce61a260853528575e4d9ab7
     Pseudo is Projector augmented-wave + core cor, Zval = 14.0
     Generated using "atomic" code by A. Dal Corso v.6.3
     Shape of augmentation charge: PSQ
     Using radial grid of 1281 points,  6 beta functions with: 
                l(1) =   0
                l(2) =   0
                l(3) =   1
                l(4) =   1
                l(5) =   2
                l(6) =   2
     Q(r) pseudized with 0 coefficients 


     PseudoPot. # 2 for I  read from file:
     ../Pseudopotential/I.pbe-n-kjpaw_psl.1.0.0.UPF
     MD5 check sum: cd3d296c3308a581e1559a0c8a554cb5
     Pseudo is Projector augmented-wave + core cor, Zval =  7.0
     Generated using "atomic" code by A. Dal Corso v.6.3
     Shape of augmentation charge: PSQ
     Using radial grid of 1247 points,  6 beta functions with: 
                l(1) =   0
                l(2) =   0
                l(3) =   1
                l(4) =   1
                l(5) =   2
                l(6) =   2
     Q(r) pseudized with 0 coefficients 


     PseudoPot. # 3 for C  read from file:
     ../Pseudopotential/C.pbe-n-kjpaw_psl.1.0.0.UPF
     MD5 check sum: 5f16ad9a65e90284d1d834d4ab3b0f7d
     Pseudo is Projector augmented-wave + core cor, Zval =  4.0
     Generated using "atomic" code by A. Dal Corso v.6.3
     Shape of augmentation charge: PSQ
     Using radial grid of 1073 points,  4 beta functions with: 
                l(1) =   0
                l(2) =   0
                l(3) =   1
                l(4) =   1
     Q(r) pseudized with 0 coefficients 


     PseudoPot. # 4 for N  read from file:
     ../Pseudopotential/N.pbe-n-kjpaw_psl.1.0.0.UPF
     MD5 check sum: 14c48229446f9f2d411169a3abcbc3fa
     Pseudo is Projector augmented-wave + core cor, Zval =  5.0
     Generated using "atomic" code by A. Dal Corso v.6.3
     Shape of augmentation charge: PSQ
     Using radial grid of 1085 points,  4 beta functions with: 
                l(1) =   0
                l(2) =   0
                l(3) =   1
                l(4) =   1
     Q(r) pseudized with 0 coefficients 


     PseudoPot. # 5 for H  read from file:
     ../Pseudopotential/H.pbe-kjpaw_psl.1.0.0.UPF
     MD5 check sum: d81a744832360e4a8af0b0b5b123bc2a
     Pseudo is Projector augmented-wave, Zval =  1.0
     Generated using "atomic" code by A. Dal Corso v.6.3MaX
     Shape of augmentation charge: PSQ
     Using radial grid of  929 points,  2 beta functions with: 
                l(1) =   0
                l(2) =   0
     Q(r) pseudized with 0 coefficients 


     atomic species   valence    mass     pseudopotential
        Pb            14.00   207.97600     Pb( 1.00)
        I              7.00   126.90400     I ( 1.00)
        C              4.00    12.00000     C ( 1.00)
        N              5.00    14.00300     N ( 1.00)
        H              1.00     1.00700     H ( 1.00)

     No symmetry found



   Cartesian axes

     site n.     atom                  positions (alat units)
         1           Pb  tau(   1) = (   0.0008708   0.0036771  -0.0033613  )
         2           Pb  tau(   2) = (   0.0033091   0.0032112   0.4872754  )
         3           Pb  tau(   3) = (   0.0030256   0.5029657  -0.0018853  )
         4           Pb  tau(   4) = (   0.0010641   0.5062878   0.4890297  )
         5           Pb  tau(   5) = (   0.5032983   0.0035990   0.0003443  )
         6           Pb  tau(   6) = (   0.5018039   0.0019301   0.4907734  )
         7           Pb  tau(   7) = (   0.5047077   0.5024596   0.0016058  )
         8           Pb  tau(   8) = (   0.5018221   0.5040285   0.4936922  )
         9           I   tau(   9) = (   0.2550919   0.0130394  -0.0173942  )
        10           I   tau(  10) = (   0.0405660   0.2583449   0.0190522  )
        11           I   tau(  11) = (   0.0218794  -0.0130171   0.2432233  )
        12           I   tau(  12) = (   0.2546298   0.0193369   0.5136013  )
        13           I   tau(  13) = (   0.0382183   0.2586387   0.4826463  )
        14           I   tau(  14) = (  -0.0271102   0.0258461   0.7345712  )
        15           I   tau(  15) = (   0.2546015   0.5410671   0.0061256  )
        16           I   tau(  16) = (   0.0093706   0.7571853  -0.0162559  )
        17           I   tau(  17) = (  -0.0120207   0.5162293   0.2432091  )
        18           I   tau(  18) = (   0.2539542   0.5432361   0.4925960  )
        19           I   tau(  19) = (   0.0123998   0.7588789   0.4939607  )
        20           I   tau(  20) = (   0.0114507   0.4900503   0.7357006  )
        21           I   tau(  21) = (   0.7530863   0.0402144   0.0202060  )
        22           I   tau(  22) = (   0.5183892   0.2573878  -0.0096744  )
        23           I   tau(  23) = (   0.4787495   0.0173226   0.2472000  )
        24           I   tau(  24) = (   0.7539254   0.0300302   0.4768627  )
        25           I   tau(  25) = (   0.5180379   0.2562806   0.5083265  )
        26           I   tau(  26) = (   0.5217295  -0.0158724   0.7375092  )
        27           I   tau(  27) = (   0.7533801   0.5117063  -0.0139837  )
        28           I   tau(  28) = (   0.5378581   0.7565034   0.0174657  )
        29           I   tau(  29) = (   0.5032827   0.4951285   0.2483674  )
        30           I   tau(  30) = (   0.7524842   0.5147297   0.5022334  )
        31           I   tau(  31) = (   0.5399805   0.7556471   0.4889100  )
        32           I   tau(  32) = (   0.4907820   0.5138058   0.7380029  )
        33           C   tau(  33) = (   0.2849327   0.2849081   0.2413344  )
        34           C   tau(  34) = (   0.2831256   0.2838880   0.7333979  )
        35           C   tau(  35) = (   0.2846323   0.7860698   0.2395200  )
        36           C   tau(  36) = (   0.2843930   0.7857879   0.7324689  )
        37           C   tau(  37) = (   0.7843693   0.2842408   0.2410474  )
        38           C   tau(  38) = (   0.7836669   0.2866301   0.7297510  )
        39           C   tau(  39) = (   0.7847605   0.7856884   0.2393969  )
        40           C   tau(  40) = (   0.7838965   0.7865813   0.7321483  )
        41           N   tau(  41) = (   0.2006492   0.2051228   0.2525916  )
        42           N   tau(  42) = (   0.2067314   0.1966901   0.7448380  )
        43           N   tau(  43) = (   0.2121419   0.6933978   0.2437652  )
        44           N   tau(  44) = (   0.2070260   0.6981125   0.7434128  )
        45           N   tau(  45) = (   0.7038460   0.2012289   0.2542055  )
        46           N   tau(  46) = (   0.6947812   0.2105256   0.7355299  )
        47           N   tau(  47) = (   0.6955884   0.7100848   0.2464857  )
        48           N   tau(  48) = (   0.7050869   0.7003062   0.7477081  )
        49           H   tau(  49) = (   0.1476677   0.2096912   0.1909376  )
        50           H   tau(  50) = (   0.1585754   0.2142591   0.3221524  )
        51           H   tau(  51) = (   0.2299860   0.1301856   0.2520844  )
        52           H   tau(  52) = (   0.3344614   0.2640152   0.1747199  )
        53           H   tau(  53) = (   0.3311308   0.2870927   0.3136941  )
        54           H   tau(  54) = (   0.2477879   0.3603517   0.2268530  )
        55           H   tau(  55) = (   0.2094914   0.1463965   0.6806417  )
        56           H   tau(  56) = (   0.1309000   0.2237946   0.7508918  )
        57           H   tau(  57) = (   0.2216263   0.1523279   0.8115334  )
        58           H   tau(  58) = (   0.2687216   0.3230788   0.6588189  )
        59           H   tau(  59) = (   0.3624412   0.2517478   0.7345941  )
        60           H   tau(  60) = (   0.2725788   0.3382689   0.7985193  )
        61           H   tau(  61) = (   0.2116639   0.6531684   0.1725022  )
        62           H   tau(  62) = (   0.1350929   0.7132548   0.2590366  )
        63           H   tau(  63) = (   0.2345085   0.6403254   0.3017634  )
        64           H   tau(  64) = (   0.2671288   0.8320071   0.1688045  )
        65           H   tau(  65) = (   0.3653327   0.7568947   0.2387004  )
        66           H   tau(  66) = (   0.2728832   0.8330433   0.3101967  )
        67           H   tau(  67) = (   0.2129591   0.6452812   0.6817018  )
        68           H   tau(  68) = (   0.1308144   0.7251937   0.7461171  )
        69           H   tau(  69) = (   0.2190201   0.6568882   0.8126156  )
        70           H   tau(  70) = (   0.2587999   0.8363716   0.6681812  )
        71           H   tau(  71) = (   0.3616942   0.7519972   0.7150251  )
        72           H   tau(  72) = (   0.2857078   0.8300625   0.8059492  )
        73           H   tau(  73) = (   0.7052308   0.1493216   0.1912843  )
        74           H   tau(  74) = (   0.6292606   0.2314371   0.2585648  )
        75           H   tau(  75) = (   0.7160840   0.1576445   0.3222151  )
        76           H   tau(  76) = (   0.7692835   0.3257195   0.1677180  )
        77           H   tau(  77) = (   0.8611730   0.2467798   0.2380750  )
        78           H   tau(  78) = (   0.7799668   0.3376626   0.3078128  )
        79           H   tau(  79) = (   0.6465956   0.2147542   0.6698368  )
        80           H   tau(  80) = (   0.6477521   0.2246154   0.8005068  )
        81           H   tau(  81) = (   0.7206531   0.1343941   0.7408272  )
        82           H   tau(  82) = (   0.8336570   0.2662429   0.6631923  )
        83           H   tau(  83) = (   0.8278301   0.2812327   0.8028452  )
        84           H   tau(  84) = (   0.7516559   0.3653708   0.7202251  )
        85           H   tau(  85) = (   0.6431172   0.7193943   0.1844112  )
        86           H   tau(  86) = (   0.6537826   0.7212000   0.3155371  )
        87           H   tau(  87) = (   0.7209199   0.6335727   0.2450869  )
        88           H   tau(  88) = (   0.8337815   0.7656205   0.1719741  )
        89           H   tau(  89) = (   0.8303418   0.7796736   0.3115044  )
        90           H   tau(  90) = (   0.7527747   0.8647877   0.2307171  )
        91           H   tau(  91) = (   0.6971714   0.6548712   0.6804587  )
        92           H   tau(  92) = (   0.6320361   0.7309120   0.7659713  )
        93           H   tau(  93) = (   0.7264187   0.6509397   0.8094217  )
        94           H   tau(  94) = (   0.7671342   0.8249618   0.6569870  )
        95           H   tau(  95) = (   0.8626452   0.7517375   0.7316130  )
        96           H   tau(  96) = (   0.7758699   0.8421622   0.7973222  )

     number of k points=    32
                       cart. coord. in units 2pi/alat
        k(    1) = (   0.1251995   0.1249962   0.1273494), wk =   0.0625000
        k(    2) = (   0.1251995   0.1249962   0.3820481), wk =   0.0625000
        k(    3) = (   0.1251995   0.3749887   0.1273494), wk =   0.0625000
        k(    4) = (   0.1251995   0.3749887   0.3820481), wk =   0.0625000
        k(    5) = (   0.3755985   0.1249962   0.1273494), wk =   0.0625000
        k(    6) = (   0.3755985   0.1249962   0.3820481), wk =   0.0625000
        k(    7) = (   0.3755985   0.3749887   0.1273494), wk =   0.0625000
        k(    8) = (   0.3755985   0.3749887   0.3820481), wk =   0.0625000
        k(    9) = (  -0.1251995  -0.1249962   0.1273494), wk =   0.0625000
        k(   10) = (  -0.1251995   0.1249962  -0.1273494), wk =   0.0625000
        k(   11) = (   0.1251995  -0.1249962  -0.1273494), wk =   0.0625000
        k(   12) = (  -0.1251995  -0.1249962   0.3820481), wk =   0.0625000
        k(   13) = (  -0.1251995   0.1249962  -0.3820481), wk =   0.0625000
        k(   14) = (   0.1251995  -0.1249962  -0.3820481), wk =   0.0625000
        k(   15) = (  -0.1251995  -0.3749887   0.1273494), wk =   0.0625000
        k(   16) = (  -0.1251995   0.3749887  -0.1273494), wk =   0.0625000
        k(   17) = (   0.1251995  -0.3749887  -0.1273494), wk =   0.0625000
        k(   18) = (  -0.1251995  -0.3749887   0.3820481), wk =   0.0625000
        k(   19) = (  -0.1251995   0.3749887  -0.3820481), wk =   0.0625000
        k(   20) = (   0.1251995  -0.3749887  -0.3820481), wk =   0.0625000
        k(   21) = (  -0.3755985  -0.1249962   0.1273494), wk =   0.0625000
        k(   22) = (  -0.3755985   0.1249962  -0.1273494), wk =   0.0625000
        k(   23) = (   0.3755985  -0.1249962  -0.1273494), wk =   0.0625000
        k(   24) = (  -0.3755985  -0.1249962   0.3820481), wk =   0.0625000
        k(   25) = (  -0.3755985   0.1249962  -0.3820481), wk =   0.0625000
        k(   26) = (   0.3755985  -0.1249962  -0.3820481), wk =   0.0625000
        k(   27) = (  -0.3755985  -0.3749887   0.1273494), wk =   0.0625000
        k(   28) = (  -0.3755985   0.3749887  -0.1273494), wk =   0.0625000
        k(   29) = (   0.3755985  -0.3749887  -0.1273494), wk =   0.0625000
        k(   30) = (  -0.3755985  -0.3749887   0.3820481), wk =   0.0625000
        k(   31) = (  -0.3755985   0.3749887  -0.3820481), wk =   0.0625000
        k(   32) = (   0.3755985  -0.3749887  -0.3820481), wk =   0.0625000

     Dense  grid:  2452061 G-vectors     FFT dimensions: ( 180, 180, 180)

     Estimated max dynamical RAM per process >       2.14 GB

     Estimated total dynamical RAM >     102.71 GB

     Initial potential from superposition of free atoms

     starting charge  399.97850, renormalised to  400.00000
     Starting wfcs are  280 randomized atomic wfcs
     Checking if some PAW data can be deallocated... 

     total cpu time spent up to now is      517.3 secs

     Self-consistent Calculation

     iteration #  1     ecut=   120.00 Ry     beta= 0.70
     Davidson diagonalization with overlap
     ethr =  1.00E-02,  avg # of iterations =  2.0

     total cpu time spent up to now is     1447.9 secs

     total energy              =  -16489.35641816 Ry
     Harris-Foulkes estimate   =  -16492.68676789 Ry
     estimated scf accuracy    <       5.66138006 Ry

     iteration #  2     ecut=   120.00 Ry     beta= 0.70
     Davidson diagonalization with overlap
     ethr =  1.42E-03,  avg # of iterations =  3.0

     total cpu time spent up to now is     2693.9 secs

     total energy              =  -16490.58871447 Ry
     Harris-Foulkes estimate   =  -16491.76096166 Ry
     estimated scf accuracy    <       2.08403615 Ry

     iteration #  3     ecut=   120.00 Ry     beta= 0.70
     Davidson diagonalization with overlap
     ethr =  5.21E-04,  avg # of iterations =  3.0

     total cpu time spent up to now is     3681.5 secs

     total energy              =  -16491.07617372 Ry
     Harris-Foulkes estimate   =  -16491.12039577 Ry
     estimated scf accuracy    <       0.10141608 Ry

     iteration #  4     ecut=   120.00 Ry     beta= 0.70
     Davidson diagonalization with overlap
     ethr =  2.54E-05,  avg # of iterations =  3.0

     total cpu time spent up to now is     4944.6 secs

     total energy              =  -16491.10155609 Ry
     Harris-Foulkes estimate   =  -16491.11383558 Ry
     estimated scf accuracy    <       0.02268564 Ry

     iteration #  5     ecut=   120.00 Ry     beta= 0.70
     Davidson diagonalization with overlap
     ethr =  5.67E-06,  avg # of iterations =  2.0

     total cpu time spent up to now is     6008.3 secs

     total energy              =  -16491.10603017 Ry
     Harris-Foulkes estimate   =  -16491.10709036 Ry
     estimated scf accuracy    <       0.00187950 Ry

     iteration #  6     ecut=   120.00 Ry     beta= 0.70
     Davidson diagonalization with overlap
     ethr =  4.70E-07,  avg # of iterations =  3.0

     total cpu time spent up to now is     7212.6 secs

     total energy              =  -16491.10658269 Ry
     Harris-Foulkes estimate   =  -16491.10707712 Ry
     estimated scf accuracy    <       0.00119420 Ry

     iteration #  7     ecut=   120.00 Ry     beta= 0.70
     Davidson diagonalization with overlap
     ethr =  2.99E-07,  avg # of iterations =  2.2

     total cpu time spent up to now is     8177.3 secs

     total energy              =  -16491.10681875 Ry
     Harris-Foulkes estimate   =  -16491.10682845 Ry
     estimated scf accuracy    <       0.00002922 Ry

     iteration #  8     ecut=   120.00 Ry     beta= 0.70
     Davidson diagonalization with overlap
     ethr =  7.31E-09,  avg # of iterations =  3.4

     total cpu time spent up to now is     9566.1 secs

     total energy              =  -16491.10683023 Ry
     Harris-Foulkes estimate   =  -16491.10683510 Ry
     estimated scf accuracy    <       0.00001055 Ry

     iteration #  9     ecut=   120.00 Ry     beta= 0.70
     Davidson diagonalization with overlap
     ethr =  2.64E-09,  avg # of iterations =  3.1

     total cpu time spent up to now is    10603.8 secs

     total energy              =  -16491.10683252 Ry
     Harris-Foulkes estimate   =  -16491.10683329 Ry
     estimated scf accuracy    <       0.00000168 Ry

     iteration # 10     ecut=   120.00 Ry     beta= 0.70
     Davidson diagonalization with overlap
     ethr =  4.20E-10,  avg # of iterations =  4.0

     total cpu time spent up to now is    11694.7 secs

     total energy              =  -16491.10683292 Ry
     Harris-Foulkes estimate   =  -16491.10683307 Ry
     estimated scf accuracy    <       0.00000032 Ry

     iteration # 11     ecut=   120.00 Ry     beta= 0.70
     Davidson diagonalization with overlap
     ethr =  7.90E-11,  avg # of iterations =  3.2

     total cpu time spent up to now is    12721.4 secs

     End of self-consistent calculation

          k = 0.1252 0.1250 0.1273 (306484 PWs)   bands (ev):

   -17.8130 -17.7914 -17.7691 -17.7681 -17.7527 -17.7221 -17.7087 -17.7047
   -14.4154 -14.4129 -14.3952 -14.3914 -14.3757 -14.3731 -14.3707 -14.3706
   -14.3680 -14.3642 -14.3635 -14.3608 -14.3578 -14.3546 -14.3527 -14.3462
   -14.3418 -14.3410 -14.3360 -14.3347 -14.3335 -14.3298 -14.3286 -14.3250
   -14.3227 -14.3216 -14.3190 -14.3160 -14.3120 -14.3068 -14.3063 -14.3054
   -14.3014 -14.2994 -14.2993 -14.2923 -14.2922 -14.2736 -14.2689 -14.2634
   -10.7911 -10.7848 -10.7724 -10.7659 -10.7546 -10.7165 -10.6973 -10.6850
    -9.8525  -9.6812  -9.6570  -9.6319  -9.5179  -9.4837  -9.4614  -9.4258
    -9.4084  -9.3882  -9.3648  -9.3581  -9.3434  -9.3297  -9.3205  -9.2986
    -9.2825  -9.2629  -9.2289  -9.1612  -9.1577  -9.1202  -9.1044  -9.0529
    -7.2215  -7.2175  -7.2129  -7.2033  -7.1948  -7.1800  -7.1780  -7.1721
    -7.1431  -7.1406  -7.1314  -7.1212  -7.1161  -7.1092  -7.0721  -7.0624
    -6.0678  -5.6323  -5.6075  -5.5205  -5.2040  -5.1616  -5.1486  -5.1349
    -5.1152  -5.1072  -5.0931  -5.0699  -5.0568  -5.0354  -5.0239  -4.6491
    -3.0807  -3.0463  -3.0356  -3.0243  -3.0211  -3.0187  -3.0064  -2.9938
    -2.9920  -2.9823  -2.9784  -2.9761  -2.9714  -2.9532  -2.9510  -2.9203
    -1.1261  -1.0271  -1.0122  -0.9946  -0.9787  -0.9310  -0.9043  -0.8835
    -0.8475  -0.8296  -0.7853  -0.7239   0.0841   0.1251   0.1408   0.1798
     0.2505   0.2736   0.3123   0.3921   0.4115   0.4876   0.5076   0.5288
     0.5621   0.5911   0.6134   0.6423   0.6831   0.7068   0.7495   0.7724
     0.7794   0.7982   0.8211   0.8313   0.8424   0.8714   0.8952   0.9263
     0.9404   0.9572   0.9828   0.9943   1.0275   1.0386   1.0468   1.0655
     1.0723   1.0964   1.1098   1.1201   1.1231   1.1383   1.1520   1.1631
     1.1854   1.1931   1.2319   1.3935   1.4071   1.4281   1.4380   1.4649
     1.5047   1.5292   1.5689   1.5879   1.6117   1.7721   1.8111   1.9943

          k = 0.1252 0.1250 0.3820 (306502 PWs)   bands (ev):

   -17.8130 -17.7914 -17.7691 -17.7681 -17.7527 -17.7221 -17.7087 -17.7047
   -14.4148 -14.4127 -14.3942 -14.3911 -14.3757 -14.3740 -14.3717 -14.3707
   -14.3680 -14.3636 -14.3633 -14.3609 -14.3578 -14.3538 -14.3527 -14.3462
   -14.3426 -14.3413 -14.3355 -14.3350 -14.3335 -14.3298 -14.3286 -14.3250
   -14.3227 -14.3216 -14.3190 -14.3160 -14.3126 -14.3071 -14.3064 -14.3054
   -14.3014 -14.2994 -14.2993 -14.2923 -14.2922 -14.2736 -14.2690 -14.2634
   -10.7895 -10.7863 -10.7721 -10.7656 -10.7551 -10.7167 -10.6967 -10.6857
    -9.8197  -9.7398  -9.6308  -9.5985  -9.5649  -9.5351  -9.4694  -9.4303
    -9.4214  -9.3789  -9.3592  -9.3508  -9.3368  -9.3248  -9.2919  -9.2800
    -9.2478  -9.2332  -9.2031  -9.1896  -9.1594  -9.1451  -9.1094  -9.0764
    -7.2194  -7.2161  -7.2103  -7.2027  -7.1979  -7.1787  -7.1768  -7.1713
    -7.1361  -7.1344  -7.1305  -7.1243  -7.1198  -7.1156  -7.0759  -7.0628
    -5.9241  -5.6988  -5.4977  -5.4723  -5.2817  -5.2564  -5.1657  -5.1512
    -5.1311  -5.1160  -5.1087  -5.0796  -5.0480  -5.0321  -5.0092  -4.8278
    -3.0781  -3.0440  -3.0317  -3.0223  -3.0194  -3.0179  -3.0063  -2.9973
    -2.9904  -2.9838  -2.9808  -2.9780  -2.9729  -2.9530  -2.9522  -2.9196
    -1.0044  -0.9722  -0.9251  -0.9038  -0.8838  -0.8557  -0.8344  -0.7838
    -0.6433  -0.5415  -0.5302  -0.4179  -0.0255   0.0725   0.0907   0.1510
     0.1600   0.2063   0.2377   0.2618   0.3005   0.3216   0.3339   0.3497
     0.3890   0.4314   0.5841   0.6025   0.6190   0.6426   0.7397   0.7798
     0.7888   0.7969   0.8169   0.8456   0.8719   0.8850   0.8980   0.9130
     0.9225   0.9469   0.9619   0.9888   1.0071   1.0274   1.0403   1.0623
     1.0768   1.1070   1.1154   1.1287   1.1472   1.1723   1.1816   1.1990
     1.2137   1.2292   1.2430   1.2792   1.3339   1.3524   1.3873   1.4211
     1.4489   1.4791   1.5259   1.5440   1.5584   1.5946   1.6238   1.7159

          k = 0.1252 0.3750 0.1273 (306485 PWs)   bands (ev):

   -17.8130 -17.7914 -17.7691 -17.7681 -17.7527 -17.7221 -17.7087 -17.7047
   -14.4154 -14.4120 -14.3958 -14.3917 -14.3757 -14.3722 -14.3708 -14.3707
   -14.3670 -14.3643 -14.3635 -14.3625 -14.3578 -14.3539 -14.3527 -14.3462
   -14.3418 -14.3409 -14.3368 -14.3342 -14.3335 -14.3298 -14.3286 -14.3250
   -14.3227 -14.3216 -14.3190 -14.3160 -14.3121 -14.3072 -14.3063 -14.3054
   -14.3014 -14.2994 -14.2993 -14.2923 -14.2922 -14.2736 -14.2689 -14.2634
   -10.7905 -10.7847 -10.7709 -10.7678 -10.7543 -10.7168 -10.6978 -10.6852
    -9.8139  -9.7276  -9.6440  -9.6066  -9.5683  -9.5237  -9.4848  -9.4319
    -9.4067  -9.3855  -9.3621  -9.3467  -9.3389  -9.3218  -9.3015  -9.2775
    -9.2624  -9.2290  -9.1960  -9.1831  -9.1591  -9.1254  -9.1207  -9.0764
    -7.2208  -7.2179  -7.2128  -7.2034  -7.1946  -7.1802  -7.1776  -7.1721
    -7.1431  -7.1402  -7.1312  -7.1210  -7.1173  -7.1094  -7.0724  -7.0626
    -5.9507  -5.7641  -5.5055  -5.4123  -5.3341  -5.2365  -5.1611  -5.1461
    -5.1286  -5.1145  -5.1062  -5.0662  -5.0402  -5.0294  -4.9543  -4.7864
    -3.0775  -3.0460  -3.0316  -3.0243  -3.0195  -3.0170  -3.0057  -2.9971
    -2.9901  -2.9838  -2.9795  -2.9776  -2.9743  -2.9555  -2.9514  -2.9201
    -1.1059  -1.0286  -1.0129  -0.9786  -0.9563  -0.9037  -0.8719  -0.8096
    -0.5938  -0.5054  -0.4502  -0.3619  -0.0022   0.0749   0.1036   0.1381
     0.1707   0.2109   0.2171   0.2319   0.2838   0.3254   0.3444   0.3909
     0.4373   0.4755   0.5302   0.5752   0.5976   0.6690   0.7107   0.7409
     0.7744   0.8035   0.8059   0.8291   0.8491   0.8704   0.8797   0.8963
     0.9214   0.9296   0.9807   1.0039   1.0187   1.0600   1.0649   1.0784
     1.1035   1.1201   1.1281   1.1598   1.1641   1.1786   1.1923   1.2010
     1.2300   1.2521   1.2794   1.3010   1.3418   1.3697   1.4153   1.4357
     1.4693   1.4937   1.5044   1.5202   1.5561   1.6062   1.8186   1.8417

          k = 0.1252 0.3750 0.3820 (306505 PWs)   bands (ev):

   -17.8130 -17.7914 -17.7691 -17.7681 -17.7527 -17.7221 -17.7087 -17.7047
   -14.4148 -14.4119 -14.3949 -14.3913 -14.3757 -14.3731 -14.3720 -14.3707
   -14.3670 -14.3636 -14.3633 -14.3626 -14.3578 -14.3530 -14.3527 -14.3462
   -14.3425 -14.3414 -14.3362 -14.3344 -14.3335 -14.3298 -14.3286 -14.3250
   -14.3227 -14.3216 -14.3190 -14.3160 -14.3126 -14.3076 -14.3064 -14.3054
   -14.3014 -14.2994 -14.2993 -14.2923 -14.2922 -14.2736 -14.2689 -14.2634
   -10.7890 -10.7861 -10.7706 -10.7674 -10.7548 -10.7170 -10.6971 -10.6858
    -9.7840  -9.7052  -9.6917  -9.6295  -9.5775  -9.5176  -9.4984  -9.4643
    -9.4382  -9.3637  -9.3532  -9.3382  -9.3280  -9.2903  -9.2804  -9.2536
    -9.2328  -9.2206  -9.2017  -9.1852  -9.1655  -9.1500  -9.1285  -9.0977
    -7.2194  -7.2161  -7.2104  -7.2024  -7.1978  -7.1790  -7.1767  -7.1711
    -7.1369  -7.1341  -7.1300  -7.1244  -7.1198  -7.1157  -7.0759  -7.0630
    -5.8105  -5.6288  -5.5875  -5.4097  -5.3751  -5.2264  -5.1872  -5.1508
    -5.1324  -5.1260  -5.1086  -5.0930  -5.0565  -5.0392  -5.0249  -4.9496
    -3.0778  -3.0438  -3.0300  -3.0242  -3.0187  -3.0165  -3.0057  -3.0007
    -2.9877  -2.9838  -2.9806  -2.9782  -2.9723  -2.9549  -2.9521  -2.9194
    -1.0017  -0.9358  -0.9167  -0.8758  -0.6894  -0.6039  -0.5755  -0.5343
    -0.4850  -0.4518  -0.4148  -0.4021  -0.0417   0.0102   0.0487   0.0707
     0.1120   0.1259   0.1379   0.1884   0.2437   0.2441   0.2810   0.3114
     0.3432   0.4105   0.4456   0.4718   0.5561   0.6058   0.6378   0.6586
     0.6887   0.7360   0.7444   0.7980   0.8235   0.8491   0.8616   0.8681
     0.9136   0.9292   0.9720   0.9861   1.0006   1.0219   1.0486   1.0750
     1.0989   1.1238   1.1423   1.1638   1.1835   1.2044   1.2255   1.2328
     1.2503   1.2672   1.2755   1.2976   1.3173   1.3249   1.3531   1.3673
     1.4005   1.4166   1.4270   1.4597   1.5046   1.5368   1.5806   1.6060

          k = 0.3756 0.1250 0.1273 (306522 PWs)   bands (ev):

   -17.8130 -17.7914 -17.7691 -17.7681 -17.7527 -17.7221 -17.7087 -17.7048
   -14.4153 -14.4128 -14.3952 -14.3911 -14.3757 -14.3731 -14.3707 -14.3704
   -14.3676 -14.3644 -14.3635 -14.3604 -14.3578 -14.3547 -14.3527 -14.3462
   -14.3422 -14.3415 -14.3360 -14.3349 -14.3335 -14.3298 -14.3286 -14.3250
   -14.3227 -14.3216 -14.3190 -14.3160 -14.3123 -14.3068 -14.3063 -14.3054
   -14.3014 -14.2994 -14.2993 -14.2923 -14.2922 -14.2736 -14.2689 -14.2634
   -10.7907 -10.7846 -10.7701 -10.7684 -10.7547 -10.7162 -10.6979 -10.6852
    -9.8135  -9.7150  -9.6482  -9.6266  -9.5673  -9.5341  -9.4800  -9.4413
    -9.3985  -9.3800  -9.3611  -9.3446  -9.3223  -9.3119  -9.2828  -9.2724
    -9.2562  -9.2398  -9.2211  -9.1903  -9.1579  -9.1492  -9.1267  -9.0529
    -7.2209  -7.2172  -7.2133  -7.2035  -7.1948  -7.1801  -7.1780  -7.1722
    -7.1430  -7.1407  -7.1309  -7.1205  -7.1156  -7.1112  -7.0722  -7.0625
    -5.9506  -5.7563  -5.5148  -5.4127  -5.3349  -5.2270  -5.1615  -5.1459
    -5.1295  -5.1140  -5.1073  -5.0636  -5.0440  -5.0309  -4.9606  -4.7875
    -3.0804  -3.0435  -3.0325  -3.0244  -3.0175  -3.0152  -3.0046  -2.9962
    -2.9941  -2.9843  -2.9812  -2.9746  -2.9710  -2.9577  -2.9537  -2.9204
    -1.1035  -1.0228  -1.0066  -0.9752  -0.9360  -0.8790  -0.8458  -0.7652
    -0.6041  -0.5432  -0.4643  -0.4087   0.0039   0.0445   0.1207   0.1409
     0.1631   0.1889   0.2180   0.2316   0.2760   0.3051   0.3385   0.3810
     0.3930   0.4700   0.5632   0.5968   0.6203   0.6844   0.7056   0.7252
     0.7687   0.7983   0.8220   0.8408   0.8572   0.8652   0.8781   0.8966
     0.9305   0.9575   0.9722   0.9994   1.0131   1.0453   1.0669   1.0807
     1.1022   1.1166   1.1358   1.1490   1.1628   1.1697   1.1975   1.2117
     1.2185   1.2359   1.2700   1.3097   1.3452   1.3948   1.4028   1.4198
     1.4561   1.4856   1.5085   1.5365   1.5700   1.6177   1.7996   1.8604

          k = 0.3756 0.1250 0.3820 (306473 PWs)   bands (ev):

   -17.8130 -17.7914 -17.7691 -17.7681 -17.7527 -17.7221 -17.7087 -17.7048
   -14.4146 -14.4126 -14.3942 -14.3908 -14.3757 -14.3740 -14.3716 -14.3707
   -14.3677 -14.3636 -14.3635 -14.3605 -14.3578 -14.3539 -14.3527 -14.3462
   -14.3431 -14.3416 -14.3355 -14.3352 -14.3335 -14.3298 -14.3286 -14.3250
   -14.3227 -14.3216 -14.3190 -14.3160 -14.3128 -14.3071 -14.3064 -14.3054
   -14.3014 -14.2994 -14.2993 -14.2923 -14.2922 -14.2736 -14.2689 -14.2634
   -10.7892 -10.7860 -10.7700 -10.7678 -10.7552 -10.7165 -10.6972 -10.6859
    -9.7827  -9.7046  -9.6851  -9.6193  -9.5944  -9.5381  -9.5183  -9.4727
    -9.4054  -9.3580  -9.3501  -9.3138  -9.2986  -9.2846  -9.2774  -9.2619
    -9.2428  -9.2355  -9.2132  -9.2029  -9.1740  -9.1582  -9.1230  -9.0810
    -7.2193  -7.2159  -7.2102  -7.2031  -7.1980  -7.1788  -7.1767  -7.1713
    -7.1357  -7.1347  -7.1305  -7.1241  -7.1187  -7.1169  -7.0759  -7.0629
    -5.8106  -5.6209  -5.5873  -5.4013  -5.3844  -5.2263  -5.1940  -5.1519
    -5.1372  -5.1228  -5.1098  -5.0928  -5.0606  -5.0352  -5.0250  -4.9511
    -3.0779  -3.0434  -3.0303  -3.0222  -3.0172  -3.0160  -3.0030  -2.9982
    -2.9940  -2.9851  -2.9811  -2.9751  -2.9721  -2.9570  -2.9548  -2.9195
    -0.9765  -0.9021  -0.8881  -0.8237  -0.7049  -0.6152  -0.5864  -0.5400
    -0.4960  -0.4748  -0.4649  -0.3949  -0.0487   0.0163   0.0396   0.0597
     0.0845   0.1212   0.1341   0.1856   0.2261   0.2500   0.2918   0.3136
     0.3736   0.4325   0.4652   0.4926   0.5538   0.5879   0.6120   0.6525
     0.6643   0.7237   0.7457   0.7643   0.7947   0.8420   0.8579   0.8731
     0.9095   0.9470   0.9780   0.9851   1.0187   1.0470   1.0580   1.0996
     1.1086   1.1345   1.1485   1.1652   1.1865   1.2002   1.2096   1.2218
     1.2375   1.2634   1.2711   1.2982   1.3138   1.3324   1.3494   1.3781
     1.3948   1.4142   1.4288   1.4771   1.5095   1.5320   1.5633   1.6157

          k = 0.3756 0.3750 0.1273 (306585 PWs)   bands (ev):

   -17.8130 -17.7914 -17.7691 -17.7681 -17.7527 -17.7221 -17.7087 -17.7048
   -14.4152 -14.4119 -14.3958 -14.3914 -14.3757 -14.3721 -14.3707 -14.3706
   -14.3667 -14.3644 -14.3635 -14.3621 -14.3578 -14.3540 -14.3527 -14.3462
   -14.3421 -14.3414 -14.3369 -14.3344 -14.3335 -14.3298 -14.3286 -14.3250
   -14.3227 -14.3216 -14.3190 -14.3160 -14.3124 -14.3073 -14.3063 -14.3054
   -14.3014 -14.2994 -14.2993 -14.2923 -14.2922 -14.2736 -14.2689 -14.2634
   -10.7902 -10.7845 -10.7725 -10.7665 -10.7548 -10.7163 -10.6980 -10.6852
    -9.7757  -9.7033  -9.6831  -9.6162  -9.5933  -9.5507  -9.5224  -9.4805
    -9.3888  -9.3651  -9.3540  -9.3286  -9.3015  -9.2856  -9.2742  -9.2613
    -9.2524  -9.2337  -9.1981  -9.1869  -9.1760  -9.1493  -9.1350  -9.0773
    -7.2206  -7.2173  -7.2131  -7.2037  -7.1946  -7.1801  -7.1777  -7.1722
    -7.1430  -7.1402  -7.1311  -7.1206  -7.1164  -7.1115  -7.0724  -7.0627
    -5.8374  -5.6737  -5.6215  -5.4692  -5.3144  -5.1756  -5.1656  -5.1450
    -5.1268  -5.1163  -5.0980  -5.0841  -5.0489  -5.0351  -5.0209  -4.9154
    -3.0772  -3.0433  -3.0302  -3.0209  -3.0173  -3.0146  -3.0019  -2.9978
    -2.9945  -2.9862  -2.9815  -2.9771  -2.9746  -2.9587  -2.9549  -2.9202
    -1.0820  -1.0112  -0.9976  -0.9114  -0.6771  -0.6446  -0.5907  -0.5217
    -0.5100  -0.4937  -0.4368  -0.3941  -0.0372   0.0548   0.0809   0.1054
     0.1289   0.1544   0.1673   0.1796   0.1995   0.2463   0.2764   0.2921
     0.3853   0.4226   0.4526   0.5266   0.5555   0.5851   0.5995   0.6313
     0.6518   0.6953   0.7149   0.7614   0.7908   0.8449   0.8779   0.8867
     0.9153   0.9436   0.9641   0.9984   1.0246   1.0518   1.0735   1.0896
     1.1047   1.1200   1.1366   1.1629   1.1917   1.2031   1.2246   1.2450
     1.2507   1.2773   1.2997   1.3355   1.3509   1.3751   1.3862   1.3917
     1.4203   1.4375   1.4611   1.4832   1.5185   1.5871   1.6311   1.6764

          k = 0.3756 0.3750 0.3820 (306524 PWs)   bands (ev):

   -17.8130 -17.7914 -17.7691 -17.7681 -17.7527 -17.7221 -17.7087 -17.7048
   -14.4146 -14.4118 -14.3949 -14.3910 -14.3757 -14.3730 -14.3719 -14.3707
   -14.3668 -14.3636 -14.3635 -14.3621 -14.3578 -14.3531 -14.3527 -14.3462
   -14.3430 -14.3417 -14.3363 -14.3347 -14.3335 -14.3298 -14.3286 -14.3250
   -14.3227 -14.3216 -14.3190 -14.3160 -14.3129 -14.3077 -14.3064 -14.3054
   -14.3014 -14.2994 -14.2993 -14.2923 -14.2922 -14.2736 -14.2689 -14.2634
   -10.7887 -10.7859 -10.7721 -10.7661 -10.7553 -10.7165 -10.6973 -10.6859
    -9.7480  -9.6759  -9.6688  -9.6530  -9.6041  -9.5861  -9.5611  -9.5220
    -9.3770  -9.3375  -9.3159  -9.3060  -9.2902  -9.2777  -9.2665  -9.2578
    -9.2336  -9.2215  -9.2137  -9.1972  -9.1771  -9.1661  -9.1374  -9.1004
    -7.2191  -7.2159  -7.2104  -7.2027  -7.1979  -7.1788  -7.1768  -7.1712
    -7.1363  -7.1348  -7.1298  -7.1243  -7.1188  -7.1170  -7.0760  -7.0630
    -5.7015  -5.5420  -5.4874  -5.4835  -5.3492  -5.3271  -5.2749  -5.1818
    -5.1489  -5.1323  -5.1133  -5.1024  -5.0805  -5.0484  -5.0306  -5.0121
    -3.0776  -3.0433  -3.0297  -3.0223  -3.0171  -3.0161  -3.0020  -3.0000
    -2.9917  -2.9853  -2.9804  -2.9752  -2.9718  -2.9580  -2.9557  -2.9193
    -0.7232  -0.6953  -0.6524  -0.5974  -0.5707  -0.5623  -0.5453  -0.5099
    -0.4937  -0.4713  -0.4358  -0.3723  -0.0278  -0.0092   0.0139   0.0279
     0.0712   0.0856   0.1002   0.1216   0.1405   0.1592   0.1759   0.2050
     0.4464   0.4539   0.4746   0.5001   0.5146   0.5444   0.5601   0.6037
     0.6266   0.6507   0.6700   0.7113   0.7464   0.7694   0.7809   0.7961
     0.8402   0.8657   0.8963   0.9142   0.9247   0.9680   0.9881   1.0582
     1.1355   1.1716   1.1777   1.1943   1.2075   1.2102   1.2336   1.2437
     1.2575   1.2773   1.2940   1.3023   1.3191   1.3325   1.3443   1.3663
     1.3851   1.3937   1.4086   1.4283   1.4375   1.4548   1.4738   1.4964

          k =-0.1252-0.1250 0.1273 (306484 PWs)   bands (ev):

   -17.8130 -17.7914 -17.7691 -17.7681 -17.7527 -17.7221 -17.7087 -17.7047
   -14.4154 -14.4129 -14.3952 -14.3914 -14.3757 -14.3731 -14.3707 -14.3706
   -14.3680 -14.3642 -14.3635 -14.3608 -14.3578 -14.3546 -14.3527 -14.3462
   -14.3418 -14.3410 -14.3360 -14.3347 -14.3335 -14.3298 -14.3286 -14.3250
   -14.3227 -14.3216 -14.3190 -14.3160 -14.3120 -14.3068 -14.3063 -14.3054
   -14.3014 -14.2994 -14.2993 -14.2923 -14.2922 -14.2736 -14.2689 -14.2634
   -10.7910 -10.7848 -10.7724 -10.7659 -10.7546 -10.7164 -10.6974 -10.6850
    -9.8517  -9.6830  -9.6571  -9.6330  -9.5163  -9.4827  -9.4608  -9.4253
    -9.4060  -9.3907  -9.3685  -9.3527  -9.3460  -9.3306  -9.3213  -9.2975
    -9.2834  -9.2613  -9.2288  -9.1625  -9.1571  -9.1201  -9.1043  -9.0531
    -7.2213  -7.2177  -7.2131  -7.2030  -7.1947  -7.1801  -7.1779  -7.1722
    -7.1431  -7.1403  -7.1316  -7.1212  -7.1164  -7.1092  -7.0721  -7.0624
    -6.0679  -5.6324  -5.6076  -5.5202  -5.2028  -5.1618  -5.1478  -5.1357
    -5.1153  -5.1076  -5.0935  -5.0695  -5.0573  -5.0356  -5.0241  -4.6487
    -3.0797  -3.0469  -3.0359  -3.0241  -3.0202  -3.0168  -3.0069  -2.9934
    -2.9911  -2.9832  -2.9795  -2.9771  -2.9721  -2.9535  -2.9509  -2.9206
    -1.1239  -1.0382  -1.0053  -0.9941  -0.9729  -0.9280  -0.9122  -0.8832
    -0.8474  -0.8288  -0.7853  -0.7247   0.0839   0.1231   0.1415   0.1805
     0.2529   0.2738   0.3111   0.3906   0.4089   0.4918   0.5082   0.5439
     0.5599   0.5827   0.6047   0.6485   0.6876   0.7079   0.7541   0.7680
     0.7806   0.7996   0.8191   0.8326   0.8475   0.8601   0.8945   0.9163
     0.9330   0.9657   0.9702   0.9974   1.0280   1.0404   1.0467   1.0627
     1.0882   1.0968   1.1037   1.1225   1.1257   1.1361   1.1581   1.1643
     1.1761   1.1966   1.2308   1.3942   1.4051   1.4331   1.4400   1.4667
     1.5040   1.5272   1.5670   1.5930   1.6108   1.7733   1.8040   1.9947

          k =-0.1252 0.1250-0.1273 (306484 PWs)   bands (ev):

   -17.8130 -17.7914 -17.7691 -17.7681 -17.7527 -17.7221 -17.7087 -17.7047
   -14.4154 -14.4129 -14.3952 -14.3914 -14.3757 -14.3731 -14.3707 -14.3706
   -14.3680 -14.3642 -14.3635 -14.3608 -14.3578 -14.3546 -14.3527 -14.3462
   -14.3418 -14.3410 -14.3360 -14.3347 -14.3335 -14.3298 -14.3286 -14.3250
   -14.3227 -14.3216 -14.3190 -14.3160 -14.3120 -14.3068 -14.3063 -14.3054
   -14.3014 -14.2994 -14.2993 -14.2923 -14.2922 -14.2736 -14.2689 -14.2634
   -10.7911 -10.7848 -10.7736 -10.7648 -10.7548 -10.7163 -10.6971 -10.6849
    -9.8543  -9.6813  -9.6542  -9.6288  -9.5190  -9.4852  -9.4654  -9.4306
    -9.4003  -9.3858  -9.3724  -9.3586  -9.3434  -9.3323  -9.3178  -9.2955
    -9.2835  -9.2599  -9.2262  -9.1671  -9.1545  -9.1209  -9.1047  -9.0525
    -7.2213  -7.2177  -7.2130  -7.2030  -7.1948  -7.1801  -7.1779  -7.1722
    -7.1431  -7.1404  -7.1313  -7.1208  -7.1169  -7.1091  -7.0721  -7.0624
    -6.0677  -5.6262  -5.6153  -5.5189  -5.2018  -5.1646  -5.1482  -5.1414
    -5.1176  -5.1056  -5.0895  -5.0745  -5.0522  -5.0342  -5.0218  -4.6480
    -3.0797  -3.0463  -3.0367  -3.0241  -3.0204  -3.0183  -3.0065  -2.9935
    -2.9911  -2.9830  -2.9795  -2.9765  -2.9717  -2.9534  -2.9509  -2.9202
    -1.1277  -1.1013  -1.0006  -0.9882  -0.9590  -0.9427  -0.9097  -0.8847
    -0.8301  -0.8006  -0.7707  -0.6990   0.0793   0.1244   0.1465   0.1873
     0.2534   0.2698   0.2999   0.3717   0.3892   0.4582   0.5004   0.5307
     0.5795   0.5871   0.6260   0.6486   0.6571   0.6910   0.7346   0.7502
     0.7910   0.8228   0.8428   0.8583   0.8727   0.8893   0.9050   0.9239
     0.9359   0.9546   0.9716   0.9896   1.0092   1.0276   1.0499   1.0629
     1.0747   1.0877   1.1019   1.1214   1.1241   1.1372   1.1524   1.1643
     1.1797   1.2021   1.2397   1.3771   1.3905   1.4339   1.4458   1.4586
     1.4967   1.5136   1.5384   1.5810   1.7035   1.7790   1.7939   2.0468

          k = 0.1252-0.1250-0.1273 (306484 PWs)   bands (ev):

   -17.8130 -17.7914 -17.7691 -17.7681 -17.7527 -17.7221 -17.7087 -17.7047
   -14.4154 -14.4129 -14.3952 -14.3914 -14.3757 -14.3731 -14.3707 -14.3706
   -14.3680 -14.3642 -14.3635 -14.3608 -14.3578 -14.3546 -14.3527 -14.3462
   -14.3418 -14.3410 -14.3360 -14.3347 -14.3335 -14.3298 -14.3286 -14.3250
   -14.3227 -14.3216 -14.3190 -14.3160 -14.3120 -14.3068 -14.3063 -14.3054
   -14.3014 -14.2994 -14.2993 -14.2923 -14.2922 -14.2736 -14.2689 -14.2634
   -10.7911 -10.7849 -10.7736 -10.7649 -10.7548 -10.7163 -10.6971 -10.6849
    -9.8543  -9.6811  -9.6538  -9.6298  -9.5183  -9.4864  -9.4652  -9.4296
    -9.3951  -9.3895  -9.3679  -9.3609  -9.3476  -9.3369  -9.3176  -9.2916
    -9.2808  -9.2603  -9.2276  -9.1686  -9.1530  -9.1212  -9.1044  -9.0526
    -7.2210  -7.2177  -7.2131  -7.2032  -7.1947  -7.1802  -7.1779  -7.1722
    -7.1432  -7.1406  -7.1313  -7.1210  -7.1162  -7.1092  -7.0721  -7.0624
    -6.0677  -5.6263  -5.6150  -5.5191  -5.2017  -5.1641  -5.1482  -5.1417
    -5.1177  -5.1054  -5.0890  -5.0752  -5.0514  -5.0348  -5.0221  -4.6479
    -3.0808  -3.0471  -3.0348  -3.0243  -3.0205  -3.0174  -3.0069  -2.9941
    -2.9920  -2.9823  -2.9796  -2.9762  -2.9716  -2.9531  -2.9508  -2.9206
    -1.1259  -1.1010  -1.0076  -0.9902  -0.9575  -0.9424  -0.9086  -0.8761
    -0.8344  -0.7994  -0.7708  -0.7007   0.0792   0.1253   0.1470   0.1871
     0.2548   0.2689   0.2990   0.3732   0.3864   0.4566   0.4931   0.5352
     0.5710   0.6018   0.6271   0.6429   0.6606   0.6948   0.7329   0.7565
     0.7904   0.8204   0.8412   0.8524   0.8753   0.8930   0.9022   0.9297
     0.9375   0.9486   0.9688   0.9826   1.0178   1.0275   1.0502   1.0605
     1.0723   1.0857   1.1105   1.1142   1.1247   1.1357   1.1553   1.1640
     1.1854   1.1996   1.2393   1.3785   1.3874   1.4361   1.4434   1.4603
     1.5003   1.5128   1.5360   1.5796   1.7046   1.7834   1.7889   2.0466

          k =-0.1252-0.1250 0.3820 (306502 PWs)   bands (ev):

   -17.8130 -17.7914 -17.7691 -17.7681 -17.7527 -17.7221 -17.7087 -17.7047
   -14.4148 -14.4127 -14.3942 -14.3911 -14.3757 -14.3740 -14.3717 -14.3707
   -14.3680 -14.3636 -14.3633 -14.3609 -14.3578 -14.3538 -14.3527 -14.3462
   -14.3426 -14.3413 -14.3355 -14.3350 -14.3335 -14.3298 -14.3286 -14.3250
   -14.3227 -14.3216 -14.3190 -14.3160 -14.3126 -14.3071 -14.3064 -14.3054
   -14.3014 -14.2994 -14.2993 -14.2923 -14.2922 -14.2736 -14.2690 -14.2634
   -10.7893 -10.7864 -10.7720 -10.7656 -10.7551 -10.7166 -10.6968 -10.6857
    -9.8178  -9.7423  -9.6313  -9.6025  -9.5609  -9.5327  -9.4699  -9.4351
    -9.4144  -9.3811  -9.3612  -9.3463  -9.3428  -9.3221  -9.2930  -9.2774
    -9.2489  -9.2326  -9.2039  -9.1889  -9.1594  -9.1459  -9.1089  -9.0767
    -7.2192  -7.2161  -7.2106  -7.2022  -7.1981  -7.1788  -7.1767  -7.1714
    -7.1357  -7.1333  -7.1317  -7.1243  -7.1201  -7.1156  -7.0759  -7.0628
    -5.9242  -5.6989  -5.4974  -5.4726  -5.2816  -5.2557  -5.1636  -5.1518
    -5.1313  -5.1169  -5.1088  -5.0793  -5.0493  -5.0319  -5.0104  -4.8267
    -3.0770  -3.0447  -3.0324  -3.0228  -3.0170  -3.0161  -3.0068  -2.9962
    -2.9892  -2.9858  -2.9830  -2.9789  -2.9732  -2.9533  -2.9518  -2.9199
    -1.0035  -0.9754  -0.9242  -0.9041  -0.8815  -0.8476  -0.8412  -0.7834
    -0.6427  -0.5444  -0.5306  -0.4182  -0.0293   0.0723   0.0984   0.1493
     0.1640   0.2073   0.2394   0.2592   0.2976   0.3196   0.3366   0.3480
     0.3891   0.4310   0.5795   0.6021   0.6209   0.6424   0.7424   0.7786
     0.7894   0.8013   0.8223   0.8552   0.8663   0.8834   0.8898   0.9066
     0.9196   0.9494   0.9656   0.9902   1.0037   1.0231   1.0351   1.0677
     1.0893   1.1019   1.1154   1.1220   1.1482   1.1743   1.1790   1.2018
     1.2129   1.2311   1.2463   1.2755   1.3405   1.3520   1.3804   1.4225
     1.4583   1.4763   1.5298   1.5396   1.5534   1.5910   1.6234   1.7184

          k =-0.1252 0.1250-0.3820 (306502 PWs)   bands (ev):

   -17.8130 -17.7914 -17.7691 -17.7681 -17.7527 -17.7221 -17.7087 -17.7047
   -14.4148 -14.4127 -14.3942 -14.3911 -14.3757 -14.3740 -14.3717 -14.3707
   -14.3680 -14.3636 -14.3633 -14.3609 -14.3578 -14.3538 -14.3527 -14.3462
   -14.3426 -14.3413 -14.3355 -14.3350 -14.3335 -14.3298 -14.3286 -14.3250
   -14.3227 -14.3216 -14.3190 -14.3160 -14.3126 -14.3071 -14.3064 -14.3054
   -14.3014 -14.2994 -14.2993 -14.2923 -14.2922 -14.2736 -14.2690 -14.2634
   -10.7894 -10.7864 -10.7731 -10.7646 -10.7553 -10.7165 -10.6966 -10.6856
    -9.8204  -9.7418  -9.6287  -9.5976  -9.5618  -9.5367  -9.4650  -9.4356
    -9.4091  -9.3931  -9.3674  -9.3486  -9.3399  -9.3204  -9.2927  -9.2753
    -9.2447  -9.2327  -9.2054  -9.1887  -9.1596  -9.1457  -9.1095  -9.0759
    -7.2195  -7.2162  -7.2104  -7.2022  -7.1981  -7.1789  -7.1766  -7.1713
    -7.1359  -7.1332  -7.1315  -7.1242  -7.1203  -7.1157  -7.0758  -7.0629
    -5.9236  -5.6980  -5.4915  -5.4807  -5.2781  -5.2655  -5.1636  -5.1494
    -5.1326  -5.1159  -5.1077  -5.0797  -5.0473  -5.0306  -5.0089  -4.8267
    -3.0770  -3.0438  -3.0333  -3.0226  -3.0192  -3.0156  -3.0063  -2.9961
    -2.9891  -2.9871  -2.9813  -2.9790  -2.9729  -2.9533  -2.9518  -2.9196
    -1.0676  -0.9939  -0.9365  -0.8842  -0.8449  -0.8294  -0.8186  -0.7600
    -0.6441  -0.5427  -0.5288  -0.4171  -0.0325   0.0759   0.0931   0.1502
     0.1619   0.2062   0.2505   0.2572   0.2771   0.3160   0.3344   0.3491
     0.3665   0.4340   0.5806   0.6007   0.6150   0.6392   0.7193   0.7712
     0.7881   0.7997   0.8279   0.8468   0.8550   0.8906   0.9017   0.9288
     0.9329   0.9589   0.9783   0.9902   1.0089   1.0229   1.0407   1.0584
     1.0691   1.0891   1.1270   1.1327   1.1413   1.1693   1.1847   1.1972
     1.2153   1.2353   1.2572   1.2751   1.3355   1.3482   1.3731   1.4165
     1.4387   1.4626   1.4996   1.5115   1.5428   1.5675   1.7144   1.8044

          k = 0.1252-0.1250-0.3820 (306502 PWs)   bands (ev):

   -17.8130 -17.7914 -17.7691 -17.7681 -17.7527 -17.7221 -17.7087 -17.7047
   -14.4148 -14.4127 -14.3942 -14.3911 -14.3757 -14.3740 -14.3717 -14.3707
   -14.3680 -14.3636 -14.3633 -14.3609 -14.3578 -14.3538 -14.3527 -14.3462
   -14.3426 -14.3413 -14.3355 -14.3350 -14.3335 -14.3298 -14.3286 -14.3250
   -14.3227 -14.3216 -14.3190 -14.3160 -14.3126 -14.3071 -14.3064 -14.3054
   -14.3014 -14.2994 -14.2993 -14.2923 -14.2922 -14.2736 -14.2690 -14.2634
   -10.7894 -10.7864 -10.7731 -10.7646 -10.7553 -10.7165 -10.6966 -10.6856
    -9.8204  -9.7418  -9.6272  -9.6000  -9.5638  -9.5332  -9.4654  -9.4352
    -9.4118  -9.3887  -9.3673  -9.3509  -9.3416  -9.3204  -9.2906  -9.2770
    -9.2429  -9.2321  -9.2057  -9.1900  -9.1604  -9.1453  -9.1085  -9.0763
    -7.2192  -7.2161  -7.2104  -7.2027  -7.1979  -7.1789  -7.1767  -7.1712
    -7.1364  -7.1338  -7.1308  -7.1243  -7.1197  -7.1156  -7.0759  -7.0628
    -5.9236  -5.6977  -5.4925  -5.4804  -5.2765  -5.2665  -5.1633  -5.1500
    -5.1326  -5.1153  -5.1083  -5.0786  -5.0471  -5.0313  -5.0098  -4.8264
    -3.0781  -3.0447  -3.0309  -3.0215  -3.0189  -3.0166  -3.0070  -2.9967
    -2.9918  -2.9834  -2.9818  -2.9788  -2.9730  -2.9526  -2.9521  -2.9200
    -1.0672  -0.9945  -0.9335  -0.8861  -0.8445  -0.8368  -0.8143  -0.7602
    -0.6441  -0.5385  -0.5273  -0.4215  -0.0314   0.0726   0.0944   0.1486
     0.1664   0.2044   0.2499   0.2598   0.2745   0.3179   0.3327   0.3488
     0.3689   0.4322   0.5780   0.6025   0.6247   0.6292   0.7279   0.7704
     0.7936   0.8026   0.8191   0.8404   0.8607   0.8744   0.9002   0.9283
     0.9510   0.9559   0.9802   0.9851   1.0004   1.0223   1.0472   1.0554
     1.0838   1.0998   1.1078   1.1242   1.1422   1.1749   1.1819   1.2082
     1.2172   1.2286   1.2565   1.2800   1.3369   1.3418   1.3828   1.4055
     1.4399   1.4662   1.4872   1.5190   1.5427   1.5697   1.7134   1.8050

          k =-0.1252-0.3750 0.1273 (306485 PWs)   bands (ev):

   -17.8130 -17.7914 -17.7691 -17.7681 -17.7527 -17.7221 -17.7087 -17.7047
   -14.4154 -14.4120 -14.3958 -14.3917 -14.3757 -14.3722 -14.3708 -14.3707
   -14.3670 -14.3643 -14.3635 -14.3625 -14.3578 -14.3539 -14.3527 -14.3462
   -14.3418 -14.3409 -14.3368 -14.3342 -14.3335 -14.3298 -14.3286 -14.3250
   -14.3227 -14.3216 -14.3190 -14.3160 -14.3121 -14.3072 -14.3063 -14.3054
   -14.3014 -14.2994 -14.2993 -14.2923 -14.2922 -14.2736 -14.2689 -14.2634
   -10.7904 -10.7847 -10.7709 -10.7678 -10.7543 -10.7168 -10.6978 -10.6851
    -9.8127  -9.7285  -9.6460  -9.6082  -9.5653  -9.5247  -9.4848  -9.4298
    -9.4045  -9.3822  -9.3644  -9.3515  -9.3445  -9.3160  -9.3009  -9.2746
    -9.2649  -9.2301  -9.1940  -9.1836  -9.1597  -9.1261  -9.1201  -9.0768
    -7.2209  -7.2180  -7.2128  -7.2032  -7.1946  -7.1802  -7.1775  -7.1722
    -7.1430  -7.1401  -7.1313  -7.1204  -7.1182  -7.1094  -7.0723  -7.0626
    -5.9508  -5.7642  -5.5055  -5.4118  -5.3336  -5.2365  -5.1614  -5.1464
    -5.1287  -5.1144  -5.1062  -5.0664  -5.0405  -5.0294  -4.9545  -4.7858
    -3.0763  -3.0466  -3.0327  -3.0235  -3.0185  -3.0148  -3.0064  -2.9965
    -2.9895  -2.9840  -2.9820  -2.9784  -2.9750  -2.9557  -2.9514  -2.9205
    -1.1042  -1.0316  -1.0170  -0.9700  -0.9557  -0.9057  -0.8719  -0.8113
    -0.5935  -0.5046  -0.4517  -0.3619  -0.0031   0.0753   0.1035   0.1479
     0.1685   0.2026   0.2191   0.2244   0.2845   0.3303   0.3466   0.3966
     0.4317   0.4767   0.5339   0.5761   0.5906   0.6691   0.7107   0.7447
     0.7804   0.7929   0.8133   0.8371   0.8490   0.8644   0.8857   0.8990
     0.9178   0.9298   0.9732   1.0022   1.0171   1.0502   1.0527   1.0815
     1.1037   1.1165   1.1297   1.1509   1.1710   1.1829   1.2002   1.2113
     1.2243   1.2536   1.2806   1.3003   1.3427   1.3752   1.4157   1.4368
     1.4617   1.4881   1.5009   1.5423   1.5513   1.6024   1.8161   1.8401

          k =-0.1252 0.3750-0.1273 (306485 PWs)   bands (ev):

   -17.8130 -17.7914 -17.7691 -17.7681 -17.7527 -17.7221 -17.7087 -17.7047
   -14.4154 -14.4120 -14.3958 -14.3917 -14.3757 -14.3722 -14.3708 -14.3707
   -14.3670 -14.3643 -14.3635 -14.3625 -14.3578 -14.3539 -14.3527 -14.3462
   -14.3418 -14.3409 -14.3368 -14.3342 -14.3335 -14.3298 -14.3286 -14.3250
   -14.3227 -14.3216 -14.3190 -14.3160 -14.3121 -14.3072 -14.3063 -14.3054
   -14.3014 -14.2994 -14.2993 -14.2923 -14.2922 -14.2736 -14.2689 -14.2634
   -10.7905 -10.7847 -10.7727 -10.7661 -10.7545 -10.7166 -10.6976 -10.6851
    -9.8176  -9.7235  -9.6441  -9.5993  -9.5677  -9.5329  -9.4881  -9.4318
    -9.3992  -9.3864  -9.3652  -9.3483  -9.3418  -9.3226  -9.3013  -9.2724
    -9.2597  -9.2295  -9.1995  -9.1791  -9.1585  -9.1280  -9.1220  -9.0754
    -7.2206  -7.2182  -7.2129  -7.2032  -7.1947  -7.1802  -7.1775  -7.1722
    -7.1430  -7.1400  -7.1312  -7.1197  -7.1189  -7.1094  -7.0723  -7.0627
    -5.9502  -5.7644  -5.5088  -5.4081  -5.3307  -5.2435  -5.1616  -5.1479
    -5.1308  -5.1104  -5.1078  -5.0650  -5.0396  -5.0286  -4.9534  -4.7848
    -3.0763  -3.0460  -3.0331  -3.0244  -3.0196  -3.0149  -3.0060  -2.9963
    -2.9897  -2.9834  -2.9828  -2.9771  -2.9747  -2.9556  -2.9514  -2.9201
    -1.1084  -1.0544  -1.0197  -0.9736  -0.9516  -0.9176  -0.8828  -0.8079
    -0.5511  -0.4707  -0.4094  -0.3334  -0.0380   0.0343   0.0945   0.1253
     0.1676   0.2009   0.2225   0.2416   0.2648   0.3067   0.3372   0.3500
     0.4232   0.4891   0.5455   0.5896   0.6036   0.6489   0.7275   0.7595
     0.7938   0.8127   0.8279   0.8429   0.8574   0.8720   0.8819   0.8943
     0.9100   0.9470   0.9538   0.9844   1.0100   1.0519   1.0590   1.0777
     1.1089   1.1113   1.1410   1.1534   1.1630   1.1858   1.1979   1.2075
     1.2438   1.2504   1.2668   1.2779   1.3459   1.3563   1.4150   1.4249
     1.4588   1.4793   1.5075   1.5270   1.5884   1.6257   1.7971   1.8952

          k = 0.1252-0.3750-0.1273 (306485 PWs)   bands (ev):

   -17.8130 -17.7914 -17.7691 -17.7681 -17.7527 -17.7221 -17.7087 -17.7047
   -14.4154 -14.4120 -14.3958 -14.3917 -14.3757 -14.3722 -14.3708 -14.3707
   -14.3670 -14.3643 -14.3635 -14.3625 -14.3578 -14.3539 -14.3527 -14.3462
   -14.3418 -14.3409 -14.3368 -14.3342 -14.3335 -14.3298 -14.3286 -14.3250
   -14.3227 -14.3216 -14.3190 -14.3160 -14.3121 -14.3072 -14.3063 -14.3054
   -14.3014 -14.2994 -14.2993 -14.2923 -14.2922 -14.2736 -14.2689 -14.2634
   -10.7905 -10.7847 -10.7727 -10.7661 -10.7545 -10.7166 -10.6976 -10.6851
    -9.8182  -9.7220  -9.6438  -9.5996  -9.5711  -9.5320  -9.4872  -9.4296
    -9.4021  -9.3793  -9.3643  -9.3536  -9.3462  -9.3237  -9.2945  -9.2770
    -9.2577  -9.2283  -9.2013  -9.1791  -9.1582  -9.1282  -9.1214  -9.0756
    -7.2206  -7.2180  -7.2129  -7.2034  -7.1946  -7.1803  -7.1776  -7.1722
    -7.1431  -7.1404  -7.1310  -7.1202  -7.1180  -7.1094  -7.0724  -7.0626
    -5.9503  -5.7644  -5.5086  -5.4084  -5.3307  -5.2426  -5.1624  -5.1484
    -5.1309  -5.1107  -5.1075  -5.0652  -5.0395  -5.0286  -4.9527  -4.7850
    -3.0775  -3.0467  -3.0310  -3.0231  -3.0194  -3.0161  -3.0062  -2.9971
    -2.9909  -2.9829  -2.9814  -2.9778  -2.9743  -2.9553  -2.9512  -2.9205
    -1.1088  -1.0511  -1.0219  -0.9787  -0.9457  -0.9223  -0.8787  -0.8086
    -0.5520  -0.4712  -0.4082  -0.3332  -0.0372   0.0334   0.0921   0.1212
     0.1708   0.2019   0.2299   0.2412   0.2656   0.3023   0.3234   0.3548
     0.4392   0.4806   0.5409   0.5918   0.6084   0.6488   0.7347   0.7658
     0.7850   0.8150   0.8183   0.8426   0.8506   0.8704   0.8800   0.9049
     0.9183   0.9402   0.9567   0.9908   1.0062   1.0518   1.0600   1.0763
     1.1025   1.1114   1.1323   1.1564   1.1655   1.1791   1.1977   1.2075
     1.2397   1.2523   1.2714   1.2846   1.3450   1.3512   1.4161   1.4317
     1.4608   1.4797   1.5063   1.5227   1.5902   1.6304   1.7935   1.8942

          k =-0.1252-0.3750 0.3820 (306505 PWs)   bands (ev):

   -17.8130 -17.7914 -17.7691 -17.7681 -17.7527 -17.7221 -17.7087 -17.7047
   -14.4148 -14.4119 -14.3949 -14.3913 -14.3757 -14.3731 -14.3720 -14.3707
   -14.3670 -14.3636 -14.3633 -14.3626 -14.3578 -14.3530 -14.3527 -14.3462
   -14.3425 -14.3414 -14.3362 -14.3344 -14.3335 -14.3298 -14.3286 -14.3250
   -14.3227 -14.3216 -14.3190 -14.3160 -14.3126 -14.3076 -14.3064 -14.3054
   -14.3014 -14.2994 -14.2993 -14.2923 -14.2922 -14.2736 -14.2689 -14.2634
   -10.7888 -10.7862 -10.7706 -10.7674 -10.7548 -10.7170 -10.6971 -10.6858
    -9.7814  -9.7095  -9.6922  -9.6290  -9.5762  -9.5170  -9.5013  -9.4619
    -9.4354  -9.3642  -9.3550  -9.3412  -9.3272  -9.2889  -9.2791  -9.2519
    -9.2321  -9.2241  -9.2030  -9.1815  -9.1667  -9.1497  -9.1292  -9.0979
    -7.2194  -7.2161  -7.2106  -7.2020  -7.1980  -7.1791  -7.1765  -7.1713
    -7.1364  -7.1335  -7.1306  -7.1241  -7.1206  -7.1157  -7.0759  -7.0629
    -5.8106  -5.6317  -5.5841  -5.4102  -5.3752  -5.2240  -5.1841  -5.1520
    -5.1384  -5.1258  -5.1085  -5.0935  -5.0581  -5.0371  -5.0251  -4.9479
    -3.0766  -3.0445  -3.0315  -3.0233  -3.0163  -3.0143  -3.0067  -3.0006
    -2.9875  -2.9835  -2.9822  -2.9794  -2.9733  -2.9550  -2.9520  -2.9198
    -1.0021  -0.9358  -0.9163  -0.8757  -0.6886  -0.6014  -0.5730  -0.5193
    -0.4867  -0.4766  -0.4368  -0.3755  -0.0348   0.0044   0.0463   0.0733
     0.1176   0.1251   0.1371   0.1876   0.2364   0.2382   0.2847   0.3083
     0.3564   0.4081   0.4408   0.4731   0.5628   0.6066   0.6285   0.6664
     0.6881   0.7381   0.7483   0.7895   0.8309   0.8502   0.8602   0.8721
     0.9034   0.9297   0.9726   0.9832   1.0000   1.0200   1.0507   1.0695
     1.1011   1.1141   1.1433   1.1655   1.1903   1.2144   1.2238   1.2378
     1.2435   1.2635   1.2685   1.3062   1.3161   1.3330   1.3462   1.3767
     1.3908   1.4133   1.4234   1.4707   1.5077   1.5319   1.5773   1.6060

          k =-0.1252 0.3750-0.3820 (306505 PWs)   bands (ev):

   -17.8130 -17.7914 -17.7691 -17.7681 -17.7527 -17.7221 -17.7087 -17.7047
   -14.4148 -14.4119 -14.3949 -14.3913 -14.3757 -14.3731 -14.3720 -14.3707
   -14.3670 -14.3636 -14.3633 -14.3626 -14.3578 -14.3530 -14.3527 -14.3462
   -14.3425 -14.3414 -14.3362 -14.3344 -14.3335 -14.3298 -14.3286 -14.3250
   -14.3227 -14.3216 -14.3190 -14.3160 -14.3126 -14.3076 -14.3064 -14.3054
   -14.3014 -14.2994 -14.2993 -14.2923 -14.2922 -14.2736 -14.2689 -14.2634
   -10.7889 -10.7862 -10.7723 -10.7658 -10.7550 -10.7168 -10.6970 -10.6857
    -9.7852  -9.7098  -9.6895  -9.6254  -9.5725  -9.5193  -9.5023  -9.4594
    -9.4384  -9.3682  -9.3610  -9.3422  -9.3215  -9.2922  -9.2738  -9.2480
    -9.2329  -9.2298  -9.1992  -9.1805  -9.1667  -9.1518  -9.1296  -9.0965
    -7.2195  -7.2163  -7.2105  -7.2019  -7.1981  -7.1791  -7.1765  -7.1712
    -7.1365  -7.1334  -7.1306  -7.1243  -7.1203  -7.1158  -7.0759  -7.0630
    -5.8090  -5.6324  -5.5819  -5.4136  -5.3803  -5.2194  -5.1913  -5.1510
    -5.1374  -5.1225  -5.1105  -5.0912  -5.0567  -5.0358  -5.0241  -4.9486
    -3.0766  -3.0437  -3.0320  -3.0238  -3.0186  -3.0144  -3.0058  -3.0004
    -2.9877  -2.9838  -2.9814  -2.9791  -2.9732  -2.9548  -2.9521  -2.9195
    -1.0300  -0.9552  -0.9246  -0.8667  -0.6780  -0.5931  -0.5653  -0.4998
    -0.4655  -0.4533  -0.4100  -0.3539  -0.0517  -0.0180   0.0276   0.0497
     0.0906   0.1196   0.1335   0.2015   0.2234   0.2550   0.2802   0.3043
     0.3339   0.3850   0.4509   0.4865   0.5641   0.6145   0.6297   0.6491
     0.7042   0.7265   0.7465   0.7974   0.8133   0.8373   0.8723   0.8960
     0.9216   0.9343   0.9657   0.9825   1.0029   1.0295   1.0516   1.0720
     1.1003   1.1322   1.1422   1.1665   1.1948   1.1971   1.2195   1.2347
     1.2482   1.2710   1.2762   1.2929   1.3140   1.3251   1.3441   1.3502
     1.3699   1.4138   1.4197   1.4378   1.4852   1.5511   1.6151   1.6841

          k = 0.1252-0.3750-0.3820 (306505 PWs)   bands (ev):

   -17.8130 -17.7914 -17.7691 -17.7681 -17.7527 -17.7221 -17.7087 -17.7047
   -14.4148 -14.4119 -14.3949 -14.3913 -14.3757 -14.3731 -14.3720 -14.3707
   -14.3670 -14.3636 -14.3633 -14.3626 -14.3578 -14.3530 -14.3527 -14.3462
   -14.3425 -14.3414 -14.3362 -14.3344 -14.3335 -14.3298 -14.3286 -14.3250
   -14.3227 -14.3216 -14.3190 -14.3160 -14.3126 -14.3076 -14.3064 -14.3054
   -14.3014 -14.2994 -14.2993 -14.2923 -14.2922 -14.2736 -14.2689 -14.2634
   -10.7889 -10.7862 -10.7723 -10.7658 -10.7550 -10.7168 -10.6969 -10.6857
    -9.7866  -9.7069  -9.6879  -9.6291  -9.5753  -9.5166  -9.5010  -9.4596
    -9.4380  -9.3677  -9.3626  -9.3430  -9.3201  -9.2915  -9.2758  -9.2509
    -9.2317  -9.2247  -9.1991  -9.1841  -9.1661  -9.1531  -9.1270  -9.0973
    -7.2195  -7.2160  -7.2104  -7.2025  -7.1978  -7.1793  -7.1765  -7.1711
    -7.1371  -7.1338  -7.1300  -7.1242  -7.1200  -7.1157  -7.0759  -7.0629
    -5.8092  -5.6301  -5.5848  -5.4123  -5.3797  -5.2186  -5.1976  -5.1507
    -5.1337  -5.1221  -5.1100  -5.0906  -5.0556  -5.0379  -5.0240  -4.9487
    -3.0778  -3.0446  -3.0298  -3.0230  -3.0179  -3.0146  -3.0069  -3.0005
    -2.9894  -2.9830  -2.9819  -2.9787  -2.9723  -2.9546  -2.9519  -2.9198
    -1.0292  -0.9561  -0.9259  -0.8649  -0.6759  -0.5955  -0.5700  -0.5030
    -0.4745  -0.4332  -0.3960  -0.3714  -0.0614  -0.0113   0.0267   0.0409
     0.0942   0.1200   0.1491   0.1995   0.2262   0.2556   0.2766   0.3017
     0.3297   0.3854   0.4599   0.4815   0.5622   0.6168   0.6330   0.6548
     0.6995   0.7264   0.7383   0.7972   0.8077   0.8367   0.8798   0.8951
     0.9168   0.9365   0.9687   0.9817   1.0015   1.0318   1.0560   1.0721
     1.1035   1.1075   1.1504   1.1765   1.1874   1.2039   1.2180   1.2386
     1.2515   1.2560   1.2780   1.2930   1.3077   1.3280   1.3409   1.3550
     1.3899   1.4076   1.4181   1.4459   1.4764   1.5477   1.6161   1.6834

          k =-0.3756-0.1250 0.1273 (306522 PWs)   bands (ev):

   -17.8130 -17.7914 -17.7691 -17.7681 -17.7527 -17.7221 -17.7087 -17.7048
   -14.4153 -14.4128 -14.3952 -14.3911 -14.3757 -14.3731 -14.3707 -14.3704
   -14.3676 -14.3644 -14.3635 -14.3604 -14.3578 -14.3547 -14.3527 -14.3462
   -14.3422 -14.3415 -14.3360 -14.3349 -14.3335 -14.3298 -14.3286 -14.3250
   -14.3227 -14.3216 -14.3190 -14.3160 -14.3123 -14.3068 -14.3063 -14.3054
   -14.3014 -14.2994 -14.2993 -14.2923 -14.2922 -14.2736 -14.2689 -14.2634
   -10.7906 -10.7846 -10.7701 -10.7684 -10.7547 -10.7162 -10.6979 -10.6852
    -9.8123  -9.7159  -9.6508  -9.6261  -9.5662  -9.5352  -9.4777  -9.4390
    -9.4011  -9.3859  -9.3539  -9.3403  -9.3257  -9.3123  -9.2896  -9.2711
    -9.2510  -9.2390  -9.2222  -9.1920  -9.1574  -9.1491  -9.1268  -9.0531
    -7.2204  -7.2174  -7.2137  -7.2032  -7.1948  -7.1802  -7.1779  -7.1723
    -7.1431  -7.1402  -7.1313  -7.1205  -7.1157  -7.1112  -7.0722  -7.0625
    -5.9506  -5.7563  -5.5152  -5.4123  -5.3343  -5.2268  -5.1616  -5.1467
    -5.1293  -5.1140  -5.1075  -5.0636  -5.0435  -5.0310  -4.9618  -4.7867
    -3.0794  -3.0442  -3.0330  -3.0237  -3.0166  -3.0124  -3.0058  -2.9969
    -2.9920  -2.9856  -2.9820  -2.9755  -2.9723  -2.9577  -2.9536  -2.9207
    -1.1032  -1.0166  -1.0015  -0.9837  -0.9448  -0.8716  -0.8480  -0.7645
    -0.6022  -0.5435  -0.4644  -0.4112   0.0007   0.0448   0.1263   0.1435
     0.1711   0.1873   0.2131   0.2219   0.2751   0.3158   0.3412   0.3734
     0.3924   0.4696   0.5559   0.6031   0.6236   0.6936   0.6996   0.7260
     0.7761   0.7973   0.8123   0.8477   0.8516   0.8643   0.8862   0.8981
     0.9324   0.9422   0.9642   0.9956   1.0122   1.0437   1.0689   1.0799
     1.1110   1.1215   1.1257   1.1457   1.1662   1.1739   1.1940   1.2115
     1.2251   1.2439   1.2674   1.3041   1.3465   1.3955   1.4021   1.4241
     1.4545   1.4994   1.5060   1.5254   1.5744   1.6156   1.7953   1.8602

          k =-0.3756 0.1250-0.1273 (306522 PWs)   bands (ev):

   -17.8130 -17.7914 -17.7691 -17.7681 -17.7527 -17.7221 -17.7087 -17.7048
   -14.4153 -14.4128 -14.3952 -14.3911 -14.3757 -14.3731 -14.3707 -14.3704
   -14.3676 -14.3644 -14.3635 -14.3604 -14.3578 -14.3547 -14.3527 -14.3462
   -14.3422 -14.3415 -14.3360 -14.3349 -14.3335 -14.3298 -14.3286 -14.3250
   -14.3227 -14.3216 -14.3190 -14.3160 -14.3123 -14.3068 -14.3063 -14.3054
   -14.3014 -14.2994 -14.2993 -14.2923 -14.2922 -14.2736 -14.2689 -14.2634
   -10.7907 -10.7846 -10.7724 -10.7662 -10.7549 -10.7161 -10.6977 -10.6851
    -9.8177  -9.7092  -9.6474  -9.6210  -9.5715  -9.5398  -9.4833  -9.4346
    -9.4015  -9.3824  -9.3549  -9.3447  -9.3287  -9.3077  -9.2860  -9.2771
    -9.2542  -9.2346  -9.2134  -9.1926  -9.1633  -9.1488  -9.1266  -9.0527
    -7.2205  -7.2175  -7.2136  -7.2032  -7.1948  -7.1801  -7.1779  -7.1723
    -7.1430  -7.1403  -7.1310  -7.1200  -7.1163  -7.1111  -7.0722  -7.0626
    -5.9501  -5.7565  -5.5181  -5.4087  -5.3318  -5.2333  -5.1619  -5.1489
    -5.1313  -5.1125  -5.1069  -5.0622  -5.0425  -5.0306  -4.9591  -4.7862
    -3.0794  -3.0435  -3.0338  -3.0238  -3.0169  -3.0149  -3.0046  -2.9968
    -2.9923  -2.9852  -2.9811  -2.9761  -2.9714  -2.9579  -2.9535  -2.9204
    -1.1062  -1.0399  -1.0109  -0.9804  -0.9433  -0.8872  -0.8583  -0.7650
    -0.5627  -0.5044  -0.4206  -0.3761  -0.0347   0.0087   0.1010   0.1265
     0.1568   0.1846   0.2284   0.2440   0.2566   0.2971   0.3103   0.3500
     0.4027   0.4657   0.5642   0.6074   0.6395   0.6853   0.7005   0.7564
     0.7902   0.8113   0.8281   0.8417   0.8550   0.8792   0.8819   0.8908
     0.9387   0.9518   0.9641   0.9719   0.9946   1.0456   1.0755   1.0818
     1.0976   1.1164   1.1313   1.1493   1.1565   1.1784   1.2044   1.2116
     1.2220   1.2448   1.2663   1.2920   1.3405   1.3732   1.4045   1.4179
     1.4520   1.4725   1.4966   1.5602   1.6105   1.6238   1.7865   1.9009

          k = 0.3756-0.1250-0.1273 (306522 PWs)   bands (ev):

   -17.8130 -17.7914 -17.7691 -17.7681 -17.7527 -17.7221 -17.7087 -17.7048
   -14.4153 -14.4128 -14.3952 -14.3911 -14.3757 -14.3731 -14.3707 -14.3704
   -14.3676 -14.3644 -14.3635 -14.3604 -14.3578 -14.3547 -14.3527 -14.3462
   -14.3422 -14.3415 -14.3360 -14.3349 -14.3335 -14.3298 -14.3286 -14.3250
   -14.3227 -14.3216 -14.3190 -14.3160 -14.3123 -14.3068 -14.3063 -14.3054
   -14.3014 -14.2994 -14.2993 -14.2923 -14.2922 -14.2736 -14.2689 -14.2634
   -10.7907 -10.7846 -10.7723 -10.7663 -10.7549 -10.7161 -10.6977 -10.6851
    -9.8170  -9.7108  -9.6482  -9.6207  -9.5692  -9.5389  -9.4857  -9.4346
    -9.3995  -9.3772  -9.3619  -9.3482  -9.3257  -9.3085  -9.2903  -9.2689
    -9.2547  -9.2367  -9.2120  -9.1944  -9.1630  -9.1488  -9.1262  -9.0527
    -7.2204  -7.2173  -7.2136  -7.2035  -7.1947  -7.1802  -7.1780  -7.1723
    -7.1431  -7.1407  -7.1308  -7.1202  -7.1158  -7.1112  -7.0722  -7.0625
    -5.9502  -5.7564  -5.5182  -5.4089  -5.3312  -5.2343  -5.1612  -5.1482
    -5.1313  -5.1125  -5.1069  -5.0620  -5.0427  -5.0306  -4.9604  -4.7856
    -3.0805  -3.0444  -3.0317  -3.0245  -3.0166  -3.0124  -3.0065  -2.9972
    -2.9936  -2.9848  -2.9818  -2.9750  -2.9710  -2.9575  -2.9535  -2.9207
    -1.1046  -1.0415  -1.0184  -0.9803  -0.9315  -0.8859  -0.8641  -0.7649
    -0.5610  -0.5056  -0.4200  -0.3782  -0.0381   0.0082   0.1088   0.1304
     0.1586   0.1849   0.2216   0.2407   0.2570   0.3006   0.3151   0.3401
     0.3939   0.4756   0.5669   0.6082   0.6416   0.6827   0.6981   0.7593
     0.7848   0.8096   0.8270   0.8454   0.8640   0.8691   0.8833   0.8938
     0.9279   0.9602   0.9620   0.9800   0.9991   1.0407   1.0679   1.0828
     1.1044   1.1171   1.1266   1.1457   1.1644   1.1787   1.1958   1.2152
     1.2263   1.2398   1.2715   1.2851   1.3414   1.3728   1.4064   1.4215
     1.4469   1.4750   1.5021   1.5598   1.5935   1.6306   1.7903   1.9013

          k =-0.3756-0.1250 0.3820 (306473 PWs)   bands (ev):

   -17.8130 -17.7914 -17.7691 -17.7681 -17.7527 -17.7221 -17.7087 -17.7048
   -14.4146 -14.4126 -14.3942 -14.3908 -14.3757 -14.3740 -14.3716 -14.3707
   -14.3677 -14.3636 -14.3635 -14.3605 -14.3578 -14.3539 -14.3527 -14.3462
   -14.3431 -14.3416 -14.3355 -14.3352 -14.3335 -14.3298 -14.3286 -14.3250
   -14.3227 -14.3216 -14.3190 -14.3160 -14.3128 -14.3071 -14.3064 -14.3054
   -14.3014 -14.2994 -14.2993 -14.2923 -14.2922 -14.2736 -14.2689 -14.2634
   -10.7890 -10.7862 -10.7700 -10.7678 -10.7552 -10.7165 -10.6973 -10.6859
    -9.7801  -9.7084  -9.6871  -9.6134  -9.5983  -9.5372  -9.5195  -9.4697
    -9.4063  -9.3615  -9.3469  -9.3093  -9.3042  -9.2872  -9.2751  -9.2577
    -9.2455  -9.2341  -9.2136  -9.2037  -9.1742  -9.1585  -9.1224  -9.0815
    -7.2188  -7.2161  -7.2107  -7.2025  -7.1982  -7.1788  -7.1768  -7.1713
    -7.1353  -7.1336  -7.1318  -7.1244  -7.1188  -7.1168  -7.0759  -7.0628
    -5.8108  -5.6204  -5.5875  -5.4013  -5.3854  -5.2222  -5.1909  -5.1559
    -5.1402  -5.1227  -5.1100  -5.0917  -5.0624  -5.0358  -5.0255  -4.9484
    -3.0767  -3.0441  -3.0314  -3.0206  -3.0159  -3.0152  -3.0033  -2.9970
    -2.9921  -2.9880  -2.9825  -2.9760  -2.9731  -2.9569  -2.9547  -2.9198
    -0.9766  -0.9005  -0.8872  -0.8254  -0.7059  -0.6142  -0.5891  -0.5377
    -0.5008  -0.4639  -0.4551  -0.4140  -0.0514   0.0190   0.0481   0.0623
     0.0891   0.1182   0.1370   0.1750   0.2288   0.2441   0.2880   0.3156
     0.3776   0.4334   0.4527   0.4974   0.5576   0.5972   0.6083   0.6514
     0.6624   0.7247   0.7422   0.7792   0.7884   0.8383   0.8534   0.8825
     0.9161   0.9428   0.9658   0.9870   1.0041   1.0545   1.0652   1.0906
     1.1181   1.1343   1.1467   1.1643   1.1834   1.1969   1.2087   1.2320
     1.2416   1.2606   1.2727   1.2958   1.3168   1.3327   1.3529   1.3719
     1.3895   1.4129   1.4381   1.4816   1.4976   1.5392   1.5598   1.6146

          k =-0.3756 0.1250-0.3820 (306473 PWs)   bands (ev):

   -17.8130 -17.7914 -17.7691 -17.7681 -17.7527 -17.7221 -17.7087 -17.7048
   -14.4146 -14.4126 -14.3942 -14.3908 -14.3757 -14.3740 -14.3716 -14.3707
   -14.3677 -14.3636 -14.3635 -14.3605 -14.3578 -14.3539 -14.3527 -14.3462
   -14.3431 -14.3416 -14.3355 -14.3352 -14.3335 -14.3298 -14.3286 -14.3250
   -14.3227 -14.3216 -14.3190 -14.3160 -14.3128 -14.3071 -14.3064 -14.3054
   -14.3014 -14.2994 -14.2993 -14.2923 -14.2922 -14.2736 -14.2689 -14.2634
   -10.7891 -10.7861 -10.7720 -10.7659 -10.7554 -10.7163 -10.6971 -10.6858
    -9.7853  -9.7069  -9.6806  -9.6168  -9.5945  -9.5366  -9.5211  -9.4688
    -9.4094  -9.3617  -9.3501  -9.3141  -9.2989  -9.2844  -9.2796  -9.2620
    -9.2401  -9.2270  -9.2161  -9.2040  -9.1769  -9.1570  -9.1230  -9.0807
    -7.2192  -7.2161  -7.2105  -7.2025  -7.1982  -7.1789  -7.1767  -7.1712
    -7.1356  -7.1334  -7.1316  -7.1243  -7.1189  -7.1169  -7.0759  -7.0629
    -5.8092  -5.6219  -5.5850  -5.4040  -5.3889  -5.2185  -5.2042  -5.1514
    -5.1374  -5.1224  -5.1085  -5.0912  -5.0598  -5.0335  -5.0239  -4.9507
    -3.0767  -3.0433  -3.0322  -3.0215  -3.0175  -3.0142  -3.0026  -2.9970
    -2.9923  -2.9891  -2.9810  -2.9767  -2.9722  -2.9572  -2.9544  -2.9196
    -1.0063  -0.9349  -0.8844  -0.8193  -0.6899  -0.6041  -0.5803  -0.5034
    -0.4915  -0.4481  -0.4382  -0.3752  -0.0646  -0.0096   0.0162   0.0372
     0.0590   0.1176   0.1412   0.1964   0.2215   0.2530   0.2877   0.3077
     0.3479   0.4170   0.4750   0.5032   0.5535   0.5975   0.6107   0.6508
     0.6691   0.7070   0.7545   0.7712   0.8039   0.8242   0.8615   0.8826
     0.9319   0.9485   0.9734   0.9771   1.0043   1.0559   1.0697   1.0946
     1.1209   1.1373   1.1543   1.1678   1.1875   1.1949   1.2094   1.2297
     1.2399   1.2633   1.2650   1.2920   1.3092   1.3203   1.3479   1.3643
     1.3807   1.3966   1.4206   1.4542   1.4925   1.5434   1.6147   1.6815

          k = 0.3756-0.1250-0.3820 (306473 PWs)   bands (ev):

   -17.8130 -17.7914 -17.7691 -17.7681 -17.7527 -17.7221 -17.7087 -17.7048
   -14.4146 -14.4126 -14.3942 -14.3908 -14.3757 -14.3740 -14.3716 -14.3707
   -14.3677 -14.3636 -14.3635 -14.3605 -14.3578 -14.3539 -14.3527 -14.3462
   -14.3431 -14.3416 -14.3355 -14.3352 -14.3335 -14.3298 -14.3286 -14.3250
   -14.3227 -14.3216 -14.3190 -14.3160 -14.3128 -14.3071 -14.3064 -14.3054
   -14.3014 -14.2994 -14.2993 -14.2923 -14.2922 -14.2736 -14.2689 -14.2634
   -10.7891 -10.7861 -10.7719 -10.7660 -10.7554 -10.7163 -10.6971 -10.6858
    -9.7839  -9.7089  -9.6839  -9.6112  -9.5940  -9.5391  -9.5205  -9.4691
    -9.4090  -9.3599  -9.3527  -9.3113  -9.3033  -9.2854  -9.2800  -9.2583
    -9.2352  -9.2337  -9.2147  -9.2026  -9.1789  -9.1575  -9.1217  -9.0809
    -7.2191  -7.2159  -7.2103  -7.2031  -7.1980  -7.1790  -7.1767  -7.1712
    -7.1362  -7.1341  -7.1307  -7.1241  -7.1186  -7.1168  -7.0759  -7.0628
    -5.8094  -5.6213  -5.5851  -5.4044  -5.3904  -5.2174  -5.1987  -5.1539
    -5.1383  -5.1227  -5.1091  -5.0906  -5.0613  -5.0350  -5.0244  -4.9486
    -3.0779  -3.0441  -3.0297  -3.0207  -3.0174  -3.0144  -3.0036  -2.9974
    -2.9961  -2.9843  -2.9827  -2.9758  -2.9723  -2.9567  -2.9546  -2.9199
    -1.0079  -0.9325  -0.8837  -0.8228  -0.6868  -0.6066  -0.5795  -0.5041
    -0.4931  -0.4376  -0.4265  -0.3976  -0.0717  -0.0038   0.0269   0.0394
     0.0592   0.1151   0.1426   0.1851   0.2184   0.2555   0.2877   0.3075
     0.3542   0.4167   0.4646   0.5122   0.5580   0.5951   0.6106   0.6533
     0.6674   0.7069   0.7508   0.7746   0.7970   0.8327   0.8577   0.8820
     0.9247   0.9496   0.9648   0.9890   1.0180   1.0460   1.0693   1.1014
     1.1252   1.1268   1.1455   1.1691   1.1871   1.2007   1.2055   1.2324
     1.2443   1.2590   1.2725   1.2967   1.3110   1.3172   1.3435   1.3616
     1.3850   1.3966   1.4123   1.4604   1.4793   1.5526   1.6127   1.6840

          k =-0.3756-0.3750 0.1273 (306585 PWs)   bands (ev):

   -17.8130 -17.7914 -17.7691 -17.7681 -17.7527 -17.7221 -17.7087 -17.7048
   -14.4152 -14.4119 -14.3958 -14.3914 -14.3757 -14.3721 -14.3707 -14.3706
   -14.3667 -14.3645 -14.3635 -14.3621 -14.3578 -14.3540 -14.3527 -14.3462
   -14.3421 -14.3414 -14.3369 -14.3344 -14.3335 -14.3298 -14.3286 -14.3250
   -14.3227 -14.3216 -14.3190 -14.3160 -14.3124 -14.3073 -14.3063 -14.3054
   -14.3014 -14.2994 -14.2993 -14.2923 -14.2922 -14.2736 -14.2689 -14.2634
   -10.7901 -10.7846 -10.7726 -10.7665 -10.7548 -10.7163 -10.6980 -10.6852
    -9.7744  -9.7037  -9.6832  -9.6186  -9.5949  -9.5502  -9.5212  -9.4772
    -9.3901  -9.3679  -9.3508  -9.3283  -9.3035  -9.2838  -9.2760  -9.2600
    -9.2519  -9.2337  -9.1974  -9.1889  -9.1758  -9.1478  -9.1360  -9.0776
    -7.2204  -7.2175  -7.2133  -7.2034  -7.1946  -7.1802  -7.1776  -7.1723
    -7.1429  -7.1398  -7.1313  -7.1204  -7.1168  -7.1115  -7.0724  -7.0627
    -5.8375  -5.6737  -5.6217  -5.4688  -5.3135  -5.1749  -5.1665  -5.1459
    -5.1268  -5.1169  -5.0982  -5.0837  -5.0494  -5.0351  -5.0210  -4.9142
    -3.0760  -3.0440  -3.0316  -3.0184  -3.0172  -3.0121  -3.0029  -2.9973
    -2.9939  -2.9861  -2.9824  -2.9800  -2.9751  -2.9585  -2.9549  -2.9205
    -1.0814  -1.0102  -0.9973  -0.9134  -0.6761  -0.6423  -0.5932  -0.5210
    -0.5088  -0.4947  -0.4389  -0.3939  -0.0382   0.0530   0.0822   0.1051
     0.1327   0.1540   0.1624   0.1866   0.2032   0.2369   0.2754   0.2969
[...]
    -2.8976  -2.8713  -2.8600  -2.8477  -2.8399  -2.8352  -2.8295  -2.8216
    -2.8152  -2.8072  -2.7996  -2.7864  -2.7818  -2.7796  -2.7701  -2.7686
    -0.6601  -0.6096  -0.5650  -0.5309  -0.5081  -0.4589  -0.4330  -0.4156
    -0.3834  -0.3519  -0.3269  -0.2661  -0.0071   0.0279   0.0516   0.0959
     0.1169   0.1334   0.1488   0.1766   0.1989   0.2119   0.2395   0.2879
     0.4909   0.5236   0.5402   0.5558   0.5888   0.6186   0.6500   0.6743
     0.6821   0.7191   0.7659   0.7842   0.8146   0.8398   0.8560   0.8695
     0.8862   0.9128   0.9173   0.9431   0.9768   1.0060   1.0386   1.0659
     1.1671   1.1970   1.2164   1.2346   1.2506   1.2748   1.2806   1.2956
     1.3212   1.3404   1.3494   1.3674   1.3825   1.3963   1.4072   1.4252
     1.4373   1.4441   1.4624   1.4760   1.4896   1.5049   1.5227   1.5340

          k =-0.3754 0.3760-0.3859 (306524 PWs)   bands (ev):

   -17.5818 -17.5439 -17.5421 -17.5178 -17.5155 -17.5144 -17.5059 -17.4991
   -14.3810 -14.3767 -14.3755 -14.3717 -14.3571 -14.3463 -14.3455 -14.3430
   -14.3393 -14.3371 -14.3355 -14.3351 -14.3339 -14.3322 -14.3310 -14.3302
   -14.3235 -14.3211 -14.3190 -14.3147 -14.3102 -14.3082 -14.3066 -14.3057
   -14.3035 -14.2992 -14.2977 -14.2972 -14.2952 -14.2932 -14.2906 -14.2900
   -14.2861 -14.2784 -14.2738 -14.2731 -14.2671 -14.2643 -14.2594 -14.2586
   -10.5889 -10.5718 -10.5634 -10.5565 -10.5417 -10.5387 -10.5212 -10.4987
    -9.6949  -9.6366  -9.5820  -9.5705  -9.5450  -9.5228  -9.4904  -9.4494
    -9.3256  -9.3094  -9.2779  -9.2530  -9.2388  -9.2235  -9.2172  -9.2065
    -9.1889  -9.1745  -9.1552  -9.1507  -9.1289  -9.1165  -9.0910  -9.0415
    -7.0600  -7.0277  -7.0234  -7.0076  -7.0040  -6.9902  -6.9807  -6.9740
    -6.9529  -6.9369  -6.8848  -6.8786  -6.8657  -6.8548  -6.8478  -6.8419
    -5.6322  -5.4547  -5.4518  -5.4364  -5.2790  -5.2734  -5.2683  -5.1001
    -4.9445  -4.9197  -4.9109  -4.8930  -4.8873  -4.8854  -4.8696  -4.8395
    -2.8972  -2.8711  -2.8609  -2.8478  -2.8404  -2.8362  -2.8290  -2.8220
    -2.8130  -2.8088  -2.8007  -2.7870  -2.7819  -2.7791  -2.7686  -2.7681
    -0.7196  -0.6359  -0.5555  -0.5306  -0.4714  -0.4407  -0.4182  -0.4063
    -0.3489  -0.3298  -0.2538  -0.2216  -0.0852  -0.0641   0.0070   0.0205
     0.0841   0.1335   0.1398   0.1878   0.2356   0.2504   0.2714   0.3022
     0.4653   0.5191   0.5412   0.5805   0.6185   0.6254   0.6500   0.6701
     0.6921   0.7484   0.7501   0.7715   0.8082   0.8307   0.8330   0.8696
     0.8901   0.9117   0.9292   0.9484   0.9736   0.9945   1.0448   1.0789
     1.1650   1.2048   1.2261   1.2332   1.2577   1.2653   1.2820   1.2995
     1.3159   1.3408   1.3486   1.3564   1.3773   1.3868   1.3957   1.4140
     1.4219   1.4347   1.4654   1.4744   1.4900   1.5216   1.5398   1.5661

          k = 0.3754-0.3760-0.3859 (306524 PWs)   bands (ev):

   -17.5818 -17.5439 -17.5421 -17.5178 -17.5155 -17.5144 -17.5059 -17.4991
   -14.3810 -14.3767 -14.3755 -14.3717 -14.3571 -14.3463 -14.3455 -14.3430
   -14.3393 -14.3371 -14.3355 -14.3351 -14.3339 -14.3322 -14.3310 -14.3302
   -14.3235 -14.3211 -14.3190 -14.3147 -14.3102 -14.3082 -14.3066 -14.3057
   -14.3035 -14.2992 -14.2977 -14.2972 -14.2952 -14.2932 -14.2906 -14.2900
   -14.2861 -14.2784 -14.2738 -14.2731 -14.2671 -14.2643 -14.2594 -14.2586
   -10.5889 -10.5719 -10.5634 -10.5564 -10.5418 -10.5386 -10.5212 -10.4987
    -9.6950  -9.6367  -9.5851  -9.5668  -9.5411  -9.5265  -9.4911  -9.4497
    -9.3280  -9.3032  -9.2805  -9.2572  -9.2354  -9.2258  -9.2160  -9.2046
    -9.1893  -9.1707  -9.1606  -9.1506  -9.1289  -9.1135  -9.0938  -9.0407
    -7.0600  -7.0277  -7.0234  -7.0076  -7.0039  -6.9901  -6.9808  -6.9740
    -6.9530  -6.9368  -6.8853  -6.8780  -6.8658  -6.8545  -6.8479  -6.8422
    -5.6326  -5.4547  -5.4518  -5.4352  -5.2803  -5.2737  -5.2675  -5.1001
    -4.9446  -4.9197  -4.9109  -4.8928  -4.8877  -4.8850  -4.8696  -4.8395
    -2.8979  -2.8734  -2.8602  -2.8493  -2.8397  -2.8316  -2.8280  -2.8213
    -2.8134  -2.8114  -2.8012  -2.7852  -2.7811  -2.7802  -2.7701  -2.7679
    -0.7035  -0.6438  -0.5551  -0.5336  -0.4761  -0.4454  -0.4171  -0.4052
    -0.3622  -0.3421  -0.2460  -0.2298  -0.0623  -0.0366   0.0047   0.0218
     0.0830   0.1372   0.1517   0.1676   0.2301   0.2470   0.2657   0.2955
     0.4705   0.5208   0.5417   0.5811   0.6154   0.6242   0.6462   0.6671
     0.6937   0.7391   0.7546   0.7816   0.8112   0.8356   0.8423   0.8593
     0.8859   0.9033   0.9291   0.9506   0.9741   0.9974   1.0375   1.0856
     1.1655   1.2119   1.2229   1.2420   1.2514   1.2614   1.2813   1.2917
     1.3195   1.3387   1.3550   1.3626   1.3795   1.3876   1.3928   1.4138
     1.4276   1.4306   1.4548   1.4722   1.4974   1.5239   1.5404   1.5604

     highest occupied level (ev):     2.0252

!    total energy              =  -16491.14083522 Ry
     Harris-Foulkes estimate   =  -16491.14083522 Ry
     estimated scf accuracy    <          1.7E-09 Ry

     total all-electron energy =   -677247.810100 Ry

     The total energy is the sum of the following terms:

     one-electron contribution =    -839.54339451 Ry
     hartree contribution      =     604.62321403 Ry
     xc contribution           =    -755.71458864 Ry
     ewald contribution        =   -1145.68512588 Ry
     DFT-D3 Dispersion         =      -0.61679006 Ry
     one-center paw contrib.   =  -14354.20415016 Ry

     convergence has been achieved in  10 iterations

     Forces acting on atoms (cartesian axes, Ry/au):

     atom    1 type  1   force =     0.00007122    0.00088444    0.00084607
     atom    2 type  1   force =     0.00091268   -0.00152578   -0.00071933
     atom    3 type  1   force =    -0.00059317   -0.00095065   -0.00054441
     atom    4 type  1   force =    -0.00094071    0.00104588    0.00080360
     atom    5 type  1   force =    -0.00105117    0.00079323    0.00056280
     atom    6 type  1   force =    -0.00134020    0.00142528   -0.00126501
     atom    7 type  1   force =     0.00077644   -0.00051292    0.00068752
     atom    8 type  1   force =    -0.00084540   -0.00108224   -0.00028801
     atom    9 type  2   force =     0.00105711    0.00025320    0.00003159
     atom   10 type  2   force =    -0.00181485    0.00024664    0.00021965
     atom   11 type  2   force =    -0.00016561   -0.00071356   -0.00025457
     atom   12 type  2   force =    -0.00060854    0.00062593   -0.00063534
     atom   13 type  2   force =    -0.00105752   -0.00171385   -0.00100183
     atom   14 type  2   force =     0.00031958    0.00027412   -0.00056481
     atom   15 type  2   force =     0.00075343   -0.00165901   -0.00020139
     atom   16 type  2   force =     0.00060205   -0.00227254    0.00023404
     atom   17 type  2   force =    -0.00116458    0.00109195   -0.00139515
     atom   18 type  2   force =    -0.00088383   -0.00099347   -0.00094912
     atom   19 type  2   force =     0.00080321    0.00010327   -0.00021989
     atom   20 type  2   force =     0.00011847   -0.00051099    0.00159526
     atom   21 type  2   force =    -0.00085004   -0.00030027   -0.00025876
     atom   22 type  2   force =    -0.00048926    0.00089625    0.00141929
     atom   23 type  2   force =     0.00117935   -0.00007367    0.00192633
     atom   24 type  2   force =     0.00002688   -0.00031427   -0.00157431
     atom   25 type  2   force =    -0.00036139    0.00038322   -0.00011483
     atom   26 type  2   force =    -0.00070374   -0.00028360   -0.00166366
     atom   27 type  2   force =     0.00001759   -0.00020742   -0.00085036
     atom   28 type  2   force =    -0.00126571   -0.00270728   -0.00036582
     atom   29 type  2   force =     0.00182051   -0.00180231    0.00271245
     atom   30 type  2   force =     0.00173033    0.00051332   -0.00017823
     atom   31 type  2   force =    -0.00105109   -0.00213988   -0.00113883
     atom   32 type  2   force =    -0.00039854    0.00031653   -0.00183704
     atom   33 type  3   force =     0.00107101    0.00109494   -0.00054882
     atom   34 type  3   force =     0.00040329    0.00043890    0.00061167
     atom   35 type  3   force =     0.00054910    0.00068489    0.00023167
     atom   36 type  3   force =     0.00039575   -0.00092905    0.00068315
     atom   37 type  3   force =     0.00121870    0.00079404   -0.00137994
     atom   38 type  3   force =     0.00088560    0.00099575   -0.00030095
     atom   39 type  3   force =     0.00141779   -0.00050432   -0.00041881
     atom   40 type  3   force =    -0.00117241   -0.00182611    0.00080883
     atom   41 type  4   force =    -0.00059330   -0.00019025    0.00000494
     atom   42 type  4   force =    -0.00181226    0.00031196   -0.00079028
     atom   43 type  4   force =     0.00215180    0.00201501    0.00046677
     atom   44 type  4   force =    -0.00083470    0.00213285   -0.00036162
     atom   45 type  4   force =    -0.00135928    0.00089638    0.00144397
     atom   46 type  4   force =     0.00013161   -0.00072577   -0.00004169
     atom   47 type  4   force =    -0.00089909    0.00116214   -0.00020184
     atom   48 type  4   force =     0.00112288    0.00348565   -0.00156258
     atom   49 type  5   force =    -0.00131469   -0.00036319   -0.00119600
     atom   50 type  5   force =     0.00019100   -0.00233922    0.00211410
     atom   51 type  5   force =     0.00105255    0.00017307   -0.00042618
     atom   52 type  5   force =     0.00230189   -0.00064999   -0.00203736
     atom   53 type  5   force =     0.00082137    0.00185517    0.00177450
     atom   54 type  5   force =    -0.00107343    0.00048123    0.00144149
     atom   55 type  5   force =     0.00013808   -0.00124327   -0.00042497
     atom   56 type  5   force =    -0.00098468    0.00208125    0.00034068
     atom   57 type  5   force =     0.00056590   -0.00119522    0.00092395
     atom   58 type  5   force =    -0.00035667    0.00207451   -0.00039887
     atom   59 type  5   force =     0.00087884   -0.00092455   -0.00015086
     atom   60 type  5   force =    -0.00069981    0.00134527   -0.00023250
     atom   61 type  5   force =    -0.00295357    0.00294300    0.00343649
     atom   62 type  5   force =     0.00015496   -0.00040061    0.00110232
     atom   63 type  5   force =    -0.00216837   -0.00291902   -0.00132239
     atom   64 type  5   force =     0.00363939    0.00235361    0.00127169
     atom   65 type  5   force =     0.00013971   -0.00033964   -0.00123323
     atom   66 type  5   force =    -0.00159703    0.00109015   -0.00273240
     atom   67 type  5   force =     0.00023650   -0.00210460    0.00227363
     atom   68 type  5   force =     0.00089386   -0.00184969   -0.00082124
     atom   69 type  5   force =     0.00051097    0.00063149   -0.00189035
     atom   70 type  5   force =    -0.00054525   -0.00126486    0.00129132
     atom   71 type  5   force =     0.00017482    0.00120683   -0.00110272
     atom   72 type  5   force =    -0.00017190   -0.00066751    0.00000471
     atom   73 type  5   force =     0.00006208   -0.00140487   -0.00141768
     atom   74 type  5   force =    -0.00049620    0.00207706   -0.00010899
     atom   75 type  5   force =    -0.00015308   -0.00012875    0.00108058
     atom   76 type  5   force =    -0.00042867    0.00226137   -0.00049690
     atom   77 type  5   force =     0.00063428   -0.00186677    0.00034332
     atom   78 type  5   force =    -0.00065262    0.00197741    0.00177135
     atom   79 type  5   force =    -0.00037932   -0.00112712    0.00062652
     atom   80 type  5   force =    -0.00019890   -0.00079570    0.00024382
     atom   81 type  5   force =     0.00047062   -0.00110289    0.00003738
     atom   82 type  5   force =     0.00158068    0.00121517   -0.00084923
     atom   83 type  5   force =    -0.00027665   -0.00042411    0.00043025
     atom   84 type  5   force =     0.00004495    0.00127508    0.00028568
     atom   85 type  5   force =     0.00010130   -0.00094160    0.00196155
     atom   86 type  5   force =     0.00252521   -0.00083047    0.00019387
     atom   87 type  5   force =     0.00165342   -0.00327467    0.00006086
     atom   88 type  5   force =     0.00122427    0.00182484   -0.00020374
     atom   89 type  5   force =    -0.00172871   -0.00042403    0.00065610
     atom   90 type  5   force =     0.00050787    0.00209199   -0.00030905
     atom   91 type  5   force =    -0.00109312    0.00136819    0.00307253
     atom   92 type  5   force =     0.00332025   -0.00140163    0.00032602
     atom   93 type  5   force =    -0.00116661    0.00090276   -0.00324770
     atom   94 type  5   force =     0.00074551   -0.00050350    0.00216952
     atom   95 type  5   force =    -0.00299764    0.00130620    0.00098872
     atom   96 type  5   force =    -0.00041333   -0.00097476   -0.00328296

     Total force =     0.021620     Total SCF correction =     0.000149


     Computing stress (Cartesian axis) and pressure

          total   stress  (Ry/bohr**3)                   (kbar)     P=   -0.09
  -0.00000093   0.00000696   0.00000073         -0.14      1.02      0.11
   0.00000696  -0.00000605  -0.00000134          1.02     -0.89     -0.20
   0.00000073  -0.00000134   0.00000524          0.11     -0.20      0.77


     number of scf cycles    =  26
     number of bfgs steps    =  25

     enthalpy old            =  -16491.1400590788 Ry
     enthalpy new            =  -16491.1408352174 Ry

     CASE: enthalpy_new < enthalpy_old

     new trust radius        =       0.0486024570 bohr
     new conv_thr            =       0.0000000078 Ry

     new unit-cell volume =  13618.16712 a.u.^3 (  2018.00414 Ang^3 )
     density =      4.08622 g/cm^3

CELL_PARAMETERS (alat= 24.15259000)
   0.998712488   0.000000000   0.000000000
   0.000000000   0.996489266   0.000000000
   0.000000000   0.000000000   0.971212866

ATOMIC_POSITIONS (crystal)
Pb       0.004053792   0.004553996   0.001951644
Pb       0.003203088   0.006464526   0.504151803
Pb       0.004436235   0.508477126   0.000141815
Pb       0.004536531   0.508927054   0.502374935
Pb       0.505444988   0.005659013   0.002786379
Pb       0.505145557   0.005798747   0.504406549
Pb       0.505851487   0.505815992   0.000187819
Pb       0.507576288   0.507887258   0.500838497
I        0.254245164   0.008267518  -0.031632712
I        0.040654835   0.258349120   0.028328458
I        0.042363036  -0.040361500   0.252577618
I        0.255397779   0.018645805   0.535141396
I        0.029264349   0.260679190   0.470871914
I       -0.045484402   0.048033831   0.752771914
I        0.255368472   0.544075340   0.019150162
I        0.004048228   0.758637835  -0.045518925
I       -0.033965136   0.543264187   0.251577984
I        0.256043010   0.538871203   0.487539365
I        0.015164859   0.760024311   0.540560975
I        0.035606884   0.458498201   0.751043672
I        0.754665082   0.034629764   0.035129414
I        0.507240767   0.256192075  -0.037542669
I        0.455637084   0.043774594   0.251917944
I        0.754546793   0.027876008   0.472141272
I        0.516119258   0.258117697   0.531845527
I        0.546177134  -0.039369277   0.753527829
I        0.755258155   0.509045677  -0.026631782
I        0.535771678   0.757471190   0.030046259
I        0.532631350   0.464183006   0.249995708
I        0.753984424   0.520134292   0.533076475
I        0.527333275   0.759056553   0.471681395
I        0.471456954   0.537237711   0.751630113
C        0.286205195   0.287358397   0.247248831
C        0.279909677   0.285587299   0.748104409
C        0.284908663   0.787841894   0.248581585
C        0.284254072   0.780143792   0.745912337
C        0.783535371   0.288443245   0.247603002
C        0.783911424   0.286989245   0.746564713
C        0.789638077   0.784702346   0.246878458
C        0.784891205   0.786076005   0.745345534
N        0.204590114   0.203931703   0.253050330
N        0.205418488   0.195733510   0.754675106
N        0.209223769   0.698355801   0.253060294
N        0.210495740   0.689208261   0.754310717
N        0.701732918   0.205171696   0.254691429
N        0.695536047   0.210486016   0.750612649
N        0.702300521   0.706997928   0.252083911
N        0.707361338   0.698567238   0.757569756
H        0.158282337   0.204271315   0.183709527
H        0.153783425   0.216346378   0.317719441
H        0.237210240   0.130215024   0.261712813
H        0.334546705   0.273676182   0.175912267
H        0.334507573   0.283069785   0.319787983
H        0.247357227   0.363704547   0.241477488
H        0.214142759   0.146163156   0.688260891
H        0.128330033   0.220220255   0.756684306
H        0.218487832   0.149791930   0.823008137
H        0.263148959   0.330329795   0.675001547
H        0.359778213   0.254948371   0.745348338
H        0.270003768   0.335097795   0.819216978
H        0.218932572   0.647733909   0.187317814
H        0.132424068   0.724072707   0.252406971
H        0.219538846   0.654273829   0.323099800
H        0.264301248   0.836090923   0.178764939
H        0.364362116   0.756270193   0.240161150
H        0.278208156   0.833555851   0.323120035
H        0.208052896   0.647259133   0.682796942
H        0.134952822   0.713942071   0.771410375
H        0.231909141   0.637842374   0.815529424
H        0.262912478   0.826971747   0.675124308
H        0.363618876   0.748862326   0.737602342
H        0.277684267   0.827611036   0.819196135
H        0.705295350   0.155783204   0.187540113
H        0.627182698   0.236096895   0.258845722
H        0.712562975   0.157248674   0.321976570
H        0.769916480   0.334343208   0.174572109
H        0.860627091   0.251151455   0.244167858
H        0.778013134   0.338666098   0.318810537
H        0.647891347   0.217492287   0.682518510
H        0.646991156   0.222772677   0.817181126
H        0.721799649   0.134028546   0.754244657
H        0.831587179   0.269004320   0.675705691
H        0.831114279   0.279507595   0.819731759
H        0.751293280   0.366041142   0.740277516
H        0.655992291   0.712142136   0.182704112
H        0.652675350   0.720194810   0.317767458
H        0.730021808   0.631097263   0.257790973
H        0.835080449   0.768864768   0.173980715
H        0.839640557   0.776938964   0.318013248
H        0.755595482   0.863377435   0.243284754
H        0.711146655   0.647738274   0.691636161
H        0.631503627   0.726764791   0.763049320
H        0.722075669   0.653380446   0.826301614
H        0.763267481   0.832290131   0.674217116
H        0.862955024   0.751862711   0.734759104
H        0.782690819   0.834965117   0.817874497



     Writing output data file MAPbI_vcrelax_PAW4_1.save/
     NEW-OLD atomic charge density approx. for the potential
     extrapolated charge  399.37442, renormalised to  400.00000

     total cpu time spent up to now is   593291.3 secs

     Self-consistent Calculation

     iteration #  1     ecut=   120.00 Ry     beta= 0.70
     Davidson diagonalization with overlap
     ethr =  1.00E-06,  avg # of iterations =  4.0

     total cpu time spent up to now is   597467.4 secs

     total energy              =  -16491.13783039 Ry
     Harris-Foulkes estimate   =  -16492.09330874 Ry
     estimated scf accuracy    <       0.00358338 Ry

     iteration #  2     ecut=   120.00 Ry     beta= 0.70
     Davidson diagonalization with overlap
     ethr =  8.96E-07,  avg # of iterations =  4.0

     total cpu time spent up to now is   600763.0 secs

     total energy              =  -16491.14087121 Ry
     Harris-Foulkes estimate   =  -16491.14317268 Ry
     estimated scf accuracy    <       0.00560505 Ry

     iteration #  3     ecut=   120.00 Ry     beta= 0.70
     Davidson diagonalization with overlap
     ethr =  8.96E-07,  avg # of iterations =  2.0

     total cpu time spent up to now is   603209.5 secs

     total energy              =  -16491.14154435 Ry
     Harris-Foulkes estimate   =  -16491.14154591 Ry
     estimated scf accuracy    <       0.00058126 Ry

     iteration #  4     ecut=   120.00 Ry     beta= 0.70
     Davidson diagonalization with overlap
