
     Program PWSCF v.6.4 starts on 16Apr2020 at  5:13:42 

     This program is part of the open-source Quantum ESPRESSO suite
     for quantum simulation of materials; please cite
         "P. Giannozzi et al., J. Phys.:Condens. Matter 21 395502 (2009);
         "P. Giannozzi et al., J. Phys.:Condens. Matter 29 465901 (2017);
          URL http://www.quantum-espresso.org", 
     in publications or presentations arising from this work. More details at
     http://www.quantum-espresso.org/quote

     Parallel version (MPI), running on    32 processors

     MPI processes distributed on     1 nodes
     K-points division:     npool     =       4
     R & G space division:  proc/nbgrp/npool/nimage =       8
     Waiting for input...
     Reading input from standard input
     Message from routine read_cards :
     DEPRECATED: no units specified in CELL_PARAMETERS card

     Current dimensions of program PWSCF are:
     Max number of different atomic species (ntypx) = 10
     Max number of k-points (npk) =  40000
     Max angular momentum in pseudopotentials (lmaxx) =  3
               file Pb.pbe-dn-kjpaw_psl.1.0.0.UPF: wavefunction(s)  6S 6P 5D renormalized
               file I.pbe-n-kjpaw_psl.1.0.0.UPF: wavefunction(s)  5S renormalized
               file C.pbe-n-kjpaw_psl.1.0.0.UPF: wavefunction(s)  2S 2P renormalized
               file N.pbe-n-kjpaw_psl.1.0.0.UPF: wavefunction(s)  2S renormalized
               file H.pbe-kjpaw_psl.1.0.0.UPF: wavefunction(s)  1S renormalized

     --------------------------------------------
     Parameters for DFT-D3 Dispersion Correction:
     --------------------------------------------
       Reference C6 values for interpolation: 

         atom   Coordination number   C6
         H          0.912             6.05
         H          0.000            15.18
         C          0.000            98.23
         C          0.987            86.49
         C          1.998            58.72
         C          2.999            51.56
         C          3.984            36.41
         N          0.000            50.54
         N          0.994            44.25
         N          2.014            39.35
         N          2.990            31.16
         I          0.000           703.93
         I          0.997           717.00
         Pb         0.000          1477.63
         Pb         0.938          1266.00
         Pb         1.936          1088.91
         Pb         2.908          1048.37
         Pb         3.910           910.57

       Values used:

         atom   Coordination number  R0_AB[au]  C6      C8
         Pb         4.802            4.041    910.57 144158.41
         Pb         4.811            4.041    910.57 144158.39
         Pb         4.828            4.041    910.57 144158.35
         Pb         4.840            4.041    910.57 144158.33
         Pb         4.829            4.041    910.57 144158.35
         Pb         4.828            4.041    910.57 144158.35
         Pb         4.858            4.041    910.57 144158.30
         Pb         4.858            4.041    910.57 144158.30
         I          1.937            3.532    717.00  65855.99
         I          1.961            3.532    717.00  65856.00
         I          1.948            3.532    717.00  65855.99
         I          1.931            3.532    717.00  65855.99
         I          1.965            3.532    717.00  65856.00
         I          1.976            3.532    717.00  65856.00
         I          1.887            3.532    717.00  65855.99
         I          1.945            3.532    717.00  65855.99
         I          1.969            3.532    717.00  65856.00
         I          1.910            3.532    717.00  65855.99
         I          1.959            3.532    717.00  65856.00
         I          1.990            3.532    717.00  65856.00
         I          1.919            3.532    717.00  65855.99
         I          1.985            3.532    717.00  65856.00
         I          1.977            3.532    717.00  65856.00
         I          1.935            3.532    717.00  65855.99
         I          1.988            3.532    717.00  65856.00
         I          1.961            3.532    717.00  65856.00
         I          1.970            3.532    717.00  65856.00
         I          1.993            3.532    717.00  65856.00
         I          1.979            3.532    717.00  65856.00
         I          1.979            3.532    717.00  65856.00
         I          1.995            3.532    717.00  65856.00
         I          2.008            3.532    717.00  65856.00
         C          4.038            2.750     36.59   1058.26
         C          4.041            2.750     36.59   1058.15
         C          4.041            2.750     36.59   1058.15
         C          4.036            2.750     36.59   1058.34
         C          4.040            2.750     36.59   1058.18
         C          4.044            2.750     36.58   1058.03
         C          4.042            2.750     36.58   1058.10
         C          4.046            2.750     36.58   1057.94
         N          4.065            2.478     31.16    687.49
         N          4.060            2.478     31.16    687.49
         N          4.059            2.478     31.16    687.49
         N          4.067            2.478     31.16    687.49
         N          4.062            2.478     31.16    687.49
         N          4.064            2.478     31.16    687.49
         N          4.064            2.478     31.16    687.49
         N          4.060            2.478     31.16    687.49
         H          1.077            2.062      6.13     74.06
         H          1.074            2.062      6.13     74.08
         H          1.049            2.062      6.14     74.26
         H          1.007            2.062      6.17     74.64
         H          1.007            2.062      6.17     74.64
         H          1.006            2.062      6.18     74.65
         H          1.075            2.062      6.13     74.08
         H          1.038            2.062      6.15     74.35
         H          1.071            2.062      6.13     74.10
         H          1.008            2.062      6.17     74.63
         H          1.011            2.062      6.17     74.60
         H          1.008            2.062      6.17     74.64
         H          1.063            2.062      6.13     74.15
         H          1.045            2.062      6.15     74.29
         H          1.064            2.062      6.13     74.15
         H          1.008            2.062      6.17     74.63
         H          1.010            2.062      6.17     74.61
         H          1.008            2.062      6.17     74.63
         H          1.039            2.062      6.15     74.34
         H          1.040            2.062      6.15     74.33
         H          1.032            2.062      6.15     74.40
         H          1.013            2.062      6.17     74.58
         H          1.012            2.062      6.17     74.59
         H          1.012            2.062      6.17     74.59
         H          1.075            2.062      6.13     74.08
         H          1.045            2.062      6.15     74.30
         H          1.076            2.062      6.13     74.07
         H          1.008            2.062      6.17     74.63
         H          1.010            2.062      6.17     74.61
         H          1.008            2.062      6.17     74.63
         H          1.071            2.062      6.13     74.10
         H          1.069            2.062      6.13     74.11
         H          1.043            2.062      6.15     74.31
         H          1.008            2.062      6.17     74.63
         H          1.008            2.062      6.17     74.63
         H          1.009            2.062      6.17     74.63
         H          1.076            2.062      6.13     74.07
         H          1.073            2.062      6.13     74.08
         H          1.044            2.062      6.15     74.30
         H          1.008            2.062      6.17     74.63
         H          1.008            2.062      6.17     74.63
         H          1.008            2.062      6.17     74.63
         H          1.066            2.062      6.13     74.13
         H          1.036            2.062      6.15     74.37
         H          1.063            2.062      6.13     74.15
         H          1.009            2.062      6.17     74.62
         H          1.014            2.062      6.17     74.57
         H          1.009            2.062      6.17     74.62

         Molecular C6 ( Ry / a.u.^6 ) =   1196393.34


     Subspace diagonalization in iterative solution of the eigenvalue problem:
     a serial algorithm will be used


     Parallelization info
     --------------------
     sticks:   dense  smooth     PW     G-vecs:    dense   smooth      PW
     Min        2753    2753    710               299813   299813   39256
     Max        2754    2754    711               299815   299815   39259
     Sum       22027   22027   5685              2398513  2398513  314055



     bravais-lattice index     =            0
     lattice parameter (alat)  =      24.1526  a.u.
     unit-cell volume          =   13505.7595 (a.u.)^3
     number of atoms/cell      =           96
     number of atomic types    =            5
     number of electrons       =       400.00
     number of Kohn-Sham states=          200
     kinetic-energy cutoff     =     120.0000  Ry
     charge density cutoff     =     480.0000  Ry
     convergence threshold     =      1.0E-07
     mixing beta               =       0.7000
     number of iterations used =            8  plain     mixing
     Exchange-correlation      = SLA PW PBX PBC ( 1  4  3  4 0 0)
     nstep                     =          150


     celldm(1)=  24.152590  celldm(2)=   0.000000  celldm(3)=   0.000000
     celldm(4)=   0.000000  celldm(5)=   0.000000  celldm(6)=   0.000000

     crystal axes: (cart. coord. in units of alat)
               a(1) = (   1.001524   0.000000   0.000000 )  
               a(2) = (   0.000000   0.986408   0.000000 )  
               a(3) = (   0.000000   0.000000   0.970308 )  

     reciprocal axes: (cart. coord. in units 2 pi/alat)
               b(1) = (  0.998478  0.000000  0.000000 )  
               b(2) = (  0.000000  1.013779  0.000000 )  
               b(3) = (  0.000000  0.000000  1.030600 )  


     PseudoPot. # 1 for Pb read from file:
     ../Pseudopotential/Pb.pbe-dn-kjpaw_psl.1.0.0.UPF
     MD5 check sum: 684fc8fbce61a260853528575e4d9ab7
     Pseudo is Projector augmented-wave + core cor, Zval = 14.0
     Generated using "atomic" code by A. Dal Corso v.6.3
     Shape of augmentation charge: PSQ
     Using radial grid of 1281 points,  6 beta functions with: 
                l(1) =   0
                l(2) =   0
                l(3) =   1
                l(4) =   1
                l(5) =   2
                l(6) =   2
     Q(r) pseudized with 0 coefficients 


     PseudoPot. # 2 for I  read from file:
     ../Pseudopotential/I.pbe-n-kjpaw_psl.1.0.0.UPF
     MD5 check sum: cd3d296c3308a581e1559a0c8a554cb5
     Pseudo is Projector augmented-wave + core cor, Zval =  7.0
     Generated using "atomic" code by A. Dal Corso v.6.3
     Shape of augmentation charge: PSQ
     Using radial grid of 1247 points,  6 beta functions with: 
                l(1) =   0
                l(2) =   0
                l(3) =   1
                l(4) =   1
                l(5) =   2
                l(6) =   2
     Q(r) pseudized with 0 coefficients 


     PseudoPot. # 3 for C  read from file:
     ../Pseudopotential/C.pbe-n-kjpaw_psl.1.0.0.UPF
     MD5 check sum: 5f16ad9a65e90284d1d834d4ab3b0f7d
     Pseudo is Projector augmented-wave + core cor, Zval =  4.0
     Generated using "atomic" code by A. Dal Corso v.6.3
     Shape of augmentation charge: PSQ
     Using radial grid of 1073 points,  4 beta functions with: 
                l(1) =   0
                l(2) =   0
                l(3) =   1
                l(4) =   1
     Q(r) pseudized with 0 coefficients 


     PseudoPot. # 4 for N  read from file:
     ../Pseudopotential/N.pbe-n-kjpaw_psl.1.0.0.UPF
     MD5 check sum: 14c48229446f9f2d411169a3abcbc3fa
     Pseudo is Projector augmented-wave + core cor, Zval =  5.0
     Generated using "atomic" code by A. Dal Corso v.6.3
     Shape of augmentation charge: PSQ
     Using radial grid of 1085 points,  4 beta functions with: 
                l(1) =   0
                l(2) =   0
                l(3) =   1
                l(4) =   1
     Q(r) pseudized with 0 coefficients 


     PseudoPot. # 5 for H  read from file:
     ../Pseudopotential/H.pbe-kjpaw_psl.1.0.0.UPF
     MD5 check sum: d81a744832360e4a8af0b0b5b123bc2a
     Pseudo is Projector augmented-wave, Zval =  1.0
     Generated using "atomic" code by A. Dal Corso v.6.3MaX
     Shape of augmentation charge: PSQ
     Using radial grid of  929 points,  2 beta functions with: 
                l(1) =   0
                l(2) =   0
     Q(r) pseudized with 0 coefficients 


     atomic species   valence    mass     pseudopotential
        Pb            14.00   207.97600     Pb( 1.00)
        I              7.00   126.90400     I ( 1.00)
        C              4.00    12.00000     C ( 1.00)
        N              5.00    14.00300     N ( 1.00)
        H              1.00     1.00700     H ( 1.00)

     No symmetry found



   Cartesian axes

     site n.     atom                  positions (alat units)
         1           Pb  tau(   1) = (   0.0018000   0.0020379  -0.0006974  )
         2           Pb  tau(   2) = (   0.0001597   0.0031346   0.4852746  )
         3           Pb  tau(   3) = (   0.0035337   0.4974980  -0.0002402  )
         4           Pb  tau(   4) = (   0.0010961   0.4981851   0.4872054  )
         5           Pb  tau(   5) = (   0.5026902   0.0018285   0.0013396  )
         6           Pb  tau(   6) = (   0.5017492   0.0026367   0.4863498  )
         7           Pb  tau(   7) = (   0.5068988   0.4963305   0.0032674  )
         8           Pb  tau(   8) = (   0.5056022   0.4968882   0.4875539  )
         9           I   tau(   9) = (   0.2529548   0.0151534  -0.0329922  )
        10           I   tau(  10) = (   0.0291682   0.2495637   0.0401024  )
        11           I   tau(  11) = (   0.0416273  -0.0454499   0.2420057  )
        12           I   tau(  12) = (   0.2519011   0.0241102   0.5164572  )
        13           I   tau(  13) = (   0.0218093   0.2516820   0.4435108  )
        14           I   tau(  14) = (  -0.0418499   0.0510773   0.7274425  )
        15           I   tau(  15) = (   0.2555911   0.5263099   0.0272124  )
        16           I   tau(  16) = (   0.0136029   0.7426033  -0.0508360  )
        17           I   tau(  17) = (  -0.0334301   0.5415236   0.2431677  )
        18           I   tau(  18) = (   0.2539953   0.5242926   0.4641638  )
        19           I   tau(  19) = (   0.0175975   0.7449289   0.5287472  )
        20           I   tau(  20) = (   0.0345437   0.4413351   0.7284378  )
        21           I   tau(  21) = (   0.7536518   0.0275254   0.0321366  )
        22           I   tau(  22) = (   0.5157176   0.2487986  -0.0394284  )
        23           I   tau(  23) = (   0.4614072   0.0503348   0.2435714  )
        24           I   tau(  24) = (   0.7525005   0.0244248   0.4524143  )
        25           I   tau(  25) = (   0.5203447   0.2493529   0.5279121  )
        26           I   tau(  26) = (   0.5352397  -0.0482147   0.7288131  )
        27           I   tau(  27) = (   0.7563637   0.5106827  -0.0303509  )
        28           I   tau(  28) = (   0.5315424   0.7422521   0.0443266  )
        29           I   tau(  29) = (   0.5409062   0.4469687   0.2453283  )
        30           I   tau(  30) = (   0.7547918   0.5165215   0.5187390  )
        31           I   tau(  31) = (   0.5259131   0.7427780   0.4435023  )
        32           I   tau(  32) = (   0.4726440   0.5374923   0.7306502  )
        33           C   tau(  33) = (   0.2792248   0.2890619   0.2446824  )
        34           C   tau(  34) = (   0.2852851   0.2861110   0.7282496  )
        35           C   tau(  35) = (   0.2908981   0.7806497   0.2427704  )
        36           C   tau(  36) = (   0.2710211   0.7664364   0.7195604  )
        37           C   tau(  37) = (   0.7900140   0.2869193   0.2405939  )
        38           C   tau(  38) = (   0.7758722   0.2834159   0.7270418  )
        39           C   tau(  39) = (   0.7882512   0.7772686   0.2427292  )
        40           C   tau(  40) = (   0.7848784   0.7854648   0.7243242  )
        41           N   tau(  41) = (   0.2144356   0.1919420   0.2452164  )
        42           N   tau(  42) = (   0.2005855   0.2057093   0.7303131  )
        43           N   tau(  43) = (   0.2018883   0.7050258   0.2462560  )
        44           N   tau(  44) = (   0.2160539   0.6637189   0.7287697  )
        45           N   tau(  45) = (   0.7013772   0.2109010   0.2434555  )
        46           N   tau(  46) = (   0.7088460   0.1878776   0.7307613  )
        47           N   tau(  47) = (   0.7201147   0.6824904   0.2462456  )
        48           N   tau(  48) = (   0.7028415   0.7026741   0.7315267  )
        49           H   tau(  49) = (   0.1657267   0.1893556   0.1798757  )
        50           H   tau(  50) = (   0.1657666   0.1899259   0.3105641  )
        51           H   tau(  51) = (   0.2618675   0.1260741   0.2455762  )
        52           H   tau(  52) = (   0.3288800   0.2887297   0.1749635  )
        53           H   tau(  53) = (   0.3279891   0.2900851   0.3150082  )
        54           H   tau(  54) = (   0.2270492   0.3569165   0.2436670  )
        55           H   tau(  55) = (   0.2044762   0.1571857   0.6647943  )
        56           H   tau(  56) = (   0.1275095   0.2408063   0.7317786  )
        57           H   tau(  57) = (   0.2071099   0.1571992   0.7956048  )
        58           H   tau(  58) = (   0.2755996   0.3344246   0.6582416  )
        59           H   tau(  59) = (   0.3610648   0.2465033   0.7264466  )
        60           H   tau(  60) = (   0.2790082   0.3346005   0.7985090  )
        61           H   tau(  61) = (   0.2027531   0.6557317   0.1813862  )
        62           H   tau(  62) = (   0.1310124   0.7446131   0.2473678  )
        63           H   tau(  63) = (   0.2057349   0.6575777   0.3124132  )
        64           H   tau(  64) = (   0.2835606   0.8281773   0.1719586  )
        65           H   tau(  65) = (   0.3645468   0.7371278   0.2416885  )
        66           H   tau(  66) = (   0.2869540   0.8307595   0.3120440  )
        67           H   tau(  67) = (   0.2182116   0.6225911   0.6587796  )
        68           H   tau(  68) = (   0.1383967   0.6741765   0.7496640  )
        69           H   tau(  69) = (   0.2497646   0.6169392   0.7857773  )
        70           H   tau(  70) = (   0.2335955   0.8118155   0.6573556  )
        71           H   tau(  71) = (   0.3531652   0.7518843   0.7006015  )
        72           H   tau(  72) = (   0.2646694   0.8078281   0.7942483  )
        73           H   tau(  73) = (   0.7027822   0.1618257   0.1783060  )
        74           H   tau(  74) = (   0.6302409   0.2499137   0.2448557  )
        75           H   tau(  75) = (   0.7057608   0.1626669   0.3091413  )
        76           H   tau(  76) = (   0.7822336   0.3355190   0.1705284  )
        77           H   tau(  77) = (   0.8637545   0.2435932   0.2384475  )
        78           H   tau(  78) = (   0.7865924   0.3358198   0.3107654  )
        79           H   tau(  79) = (   0.6594931   0.1848859   0.6660231  )
        80           H   tau(  80) = (   0.6609429   0.1883617   0.7966652  )
        81           H   tau(  81) = (   0.7547009   0.1210016   0.7320949  )
        82           H   tau(  82) = (   0.8239759   0.2804674   0.6563236  )
        83           H   tau(  83) = (   0.8260587   0.2846606   0.7963255  )
        84           H   tau(  84) = (   0.7253520   0.3524748   0.7256973  )
        85           H   tau(  85) = (   0.6703198   0.6805082   0.1817405  )
        86           H   tau(  86) = (   0.6724825   0.6831455   0.3123840  )
        87           H   tau(  87) = (   0.7652072   0.6151034   0.2469001  )
        88           H   tau(  88) = (   0.8363144   0.7738966   0.1719994  )
        89           H   tau(  89) = (   0.8384751   0.7777780   0.3120154  )
        90           H   tau(  90) = (   0.7386129   0.8469556   0.2414683  )
        91           H   tau(  91) = (   0.7057153   0.6526418   0.6672305  )
        92           H   tau(  92) = (   0.6288653   0.7356355   0.7344989  )
        93           H   tau(  93) = (   0.7125762   0.6560369   0.7976655  )
        94           H   tau(  94) = (   0.7711972   0.8313526   0.6533852  )
        95           H   tau(  95) = (   0.8617171   0.7481470   0.7210079  )
        96           H   tau(  96) = (   0.7794735   0.8357084   0.7933810  )

     number of k points=    32
                       cart. coord. in units 2pi/alat
        k(    1) = (   0.1248098   0.1267224   0.1288250), wk =   0.0625000
        k(    2) = (   0.1248098   0.1267224   0.3864750), wk =   0.0625000
        k(    3) = (   0.1248098   0.3801671   0.1288250), wk =   0.0625000
        k(    4) = (   0.1248098   0.3801671   0.3864750), wk =   0.0625000
        k(    5) = (   0.3744294   0.1267224   0.1288250), wk =   0.0625000
        k(    6) = (   0.3744294   0.1267224   0.3864750), wk =   0.0625000
        k(    7) = (   0.3744294   0.3801671   0.1288250), wk =   0.0625000
        k(    8) = (   0.3744294   0.3801671   0.3864750), wk =   0.0625000
        k(    9) = (  -0.1248098  -0.1267224   0.1288250), wk =   0.0625000
        k(   10) = (  -0.1248098   0.1267224  -0.1288250), wk =   0.0625000
        k(   11) = (   0.1248098  -0.1267224  -0.1288250), wk =   0.0625000
        k(   12) = (  -0.1248098  -0.1267224   0.3864750), wk =   0.0625000
        k(   13) = (  -0.1248098   0.1267224  -0.3864750), wk =   0.0625000
        k(   14) = (   0.1248098  -0.1267224  -0.3864750), wk =   0.0625000
        k(   15) = (  -0.1248098  -0.3801671   0.1288250), wk =   0.0625000
        k(   16) = (  -0.1248098   0.3801671  -0.1288250), wk =   0.0625000
        k(   17) = (   0.1248098  -0.3801671  -0.1288250), wk =   0.0625000
        k(   18) = (  -0.1248098  -0.3801671   0.3864750), wk =   0.0625000
        k(   19) = (  -0.1248098   0.3801671  -0.3864750), wk =   0.0625000
        k(   20) = (   0.1248098  -0.3801671  -0.3864750), wk =   0.0625000
        k(   21) = (  -0.3744294  -0.1267224   0.1288250), wk =   0.0625000
        k(   22) = (  -0.3744294   0.1267224  -0.1288250), wk =   0.0625000
        k(   23) = (   0.3744294  -0.1267224  -0.1288250), wk =   0.0625000
        k(   24) = (  -0.3744294  -0.1267224   0.3864750), wk =   0.0625000
        k(   25) = (  -0.3744294   0.1267224  -0.3864750), wk =   0.0625000
        k(   26) = (   0.3744294  -0.1267224  -0.3864750), wk =   0.0625000
        k(   27) = (  -0.3744294  -0.3801671   0.1288250), wk =   0.0625000
        k(   28) = (  -0.3744294   0.3801671  -0.1288250), wk =   0.0625000
        k(   29) = (   0.3744294  -0.3801671  -0.1288250), wk =   0.0625000
        k(   30) = (  -0.3744294  -0.3801671   0.3864750), wk =   0.0625000
        k(   31) = (  -0.3744294   0.3801671  -0.3864750), wk =   0.0625000
        k(   32) = (   0.3744294  -0.3801671  -0.3864750), wk =   0.0625000

     Dense  grid:  2398513 G-vectors     FFT dimensions: ( 180, 180, 180)

     Estimated max dynamical RAM per process >       3.10 GB

     Estimated total dynamical RAM >      99.09 GB

     Initial potential from superposition of free atoms

     starting charge  399.97850, renormalised to  400.00000
     Starting wfcs are  280 randomized atomic wfcs
     Checking if some PAW data can be deallocated... 

     total cpu time spent up to now is     2040.0 secs

     Self-consistent Calculation

     iteration #  1     ecut=   120.00 Ry     beta= 0.70
     Davidson diagonalization with overlap
     ethr =  1.00E-02,  avg # of iterations =  2.0

     total cpu time spent up to now is     5847.0 secs

     total energy              =  -16489.36705703 Ry
     Harris-Foulkes estimate   =  -16492.77081120 Ry
     estimated scf accuracy    <       5.71075425 Ry

     iteration #  2     ecut=   120.00 Ry     beta= 0.70
     Davidson diagonalization with overlap
     ethr =  1.43E-03,  avg # of iterations =  3.0

     total cpu time spent up to now is    11358.9 secs

     total energy              =  -16490.60868836 Ry
     Harris-Foulkes estimate   =  -16491.84485999 Ry
     estimated scf accuracy    <       2.19765703 Ry

     iteration #  3     ecut=   120.00 Ry     beta= 0.70
     Davidson diagonalization with overlap
     ethr =  5.49E-04,  avg # of iterations =  3.0

     total cpu time spent up to now is    15638.2 secs

     total energy              =  -16491.12795953 Ry
     Harris-Foulkes estimate   =  -16491.17149309 Ry
     estimated scf accuracy    <       0.10070861 Ry

     iteration #  4     ecut=   120.00 Ry     beta= 0.70
     Davidson diagonalization with overlap
     ethr =  2.52E-05,  avg # of iterations =  3.0

     total cpu time spent up to now is    20725.8 secs

     total energy              =  -16491.15244017 Ry
     Harris-Foulkes estimate   =  -16491.16268930 Ry
     estimated scf accuracy    <       0.01878901 Ry

     iteration #  5     ecut=   120.00 Ry     beta= 0.70
     Davidson diagonalization with overlap
     ethr =  4.70E-06,  avg # of iterations =  2.2

     total cpu time spent up to now is    25250.7 secs

     total energy              =  -16491.15632014 Ry
     Harris-Foulkes estimate   =  -16491.15713300 Ry
     estimated scf accuracy    <       0.00145125 Ry

     iteration #  6     ecut=   120.00 Ry     beta= 0.70
     Davidson diagonalization with overlap
     ethr =  3.63E-07,  avg # of iterations =  3.0

     total cpu time spent up to now is    30523.3 secs

     total energy              =  -16491.15672070 Ry
     Harris-Foulkes estimate   =  -16491.15717512 Ry
     estimated scf accuracy    <       0.00106972 Ry

     iteration #  7     ecut=   120.00 Ry     beta= 0.70
     Davidson diagonalization with overlap
     ethr =  2.67E-07,  avg # of iterations =  2.3

     total cpu time spent up to now is    34386.3 secs

     total energy              =  -16491.15694042 Ry
     Harris-Foulkes estimate   =  -16491.15695549 Ry
     estimated scf accuracy    <       0.00004091 Ry

     iteration #  8     ecut=   120.00 Ry     beta= 0.70
     Davidson diagonalization with overlap
     ethr =  1.02E-08,  avg # of iterations =  3.0

     total cpu time spent up to now is    39679.3 secs

     total energy              =  -16491.15695421 Ry
     Harris-Foulkes estimate   =  -16491.15695772 Ry
     estimated scf accuracy    <       0.00000815 Ry

     iteration #  9     ecut=   120.00 Ry     beta= 0.70
     Davidson diagonalization with overlap
     ethr =  2.04E-09,  avg # of iterations =  3.0

     total cpu time spent up to now is    43900.1 secs

     total energy              =  -16491.15695603 Ry
     Harris-Foulkes estimate   =  -16491.15695655 Ry
     estimated scf accuracy    <       0.00000109 Ry

     iteration # 10     ecut=   120.00 Ry     beta= 0.70
     Davidson diagonalization with overlap
     ethr =  2.72E-10,  avg # of iterations =  3.7

     total cpu time spent up to now is    48493.7 secs

     total energy              =  -16491.15695632 Ry
     Harris-Foulkes estimate   =  -16491.15695643 Ry
     estimated scf accuracy    <       0.00000024 Ry

     iteration # 11     ecut=   120.00 Ry     beta= 0.70
     Davidson diagonalization with overlap
     ethr =  5.90E-11,  avg # of iterations =  3.3

     total cpu time spent up to now is    52684.9 secs

     End of self-consistent calculation

          k = 0.1248 0.1267 0.1288 (299781 PWs)   bands (ev):

   -17.5176 -17.4929 -17.4587 -17.4327 -17.4313 -17.4293 -17.4240 -17.4214
   -14.2955 -14.2899 -14.2864 -14.2833 -14.2788 -14.2774 -14.2752 -14.2723
   -14.2710 -14.2680 -14.2678 -14.2620 -14.2610 -14.2582 -14.2559 -14.2551
   -14.2493 -14.2474 -14.2464 -14.2458 -14.2457 -14.2451 -14.2443 -14.2426
   -14.2422 -14.2373 -14.2354 -14.2352 -14.2349 -14.2340 -14.2327 -14.2315
   -14.2290 -14.2274 -14.2261 -14.2253 -14.2201 -14.2170 -14.2148 -14.2071
   -10.4923 -10.4701 -10.4619 -10.4585 -10.4495 -10.4442 -10.4276 -10.4243
    -9.6906  -9.5235  -9.5212  -9.5060  -9.3601  -9.3460  -9.3367  -9.3000
    -9.2848  -9.2689  -9.2474  -9.2401  -9.2286  -9.2001  -9.1897  -9.1769
    -9.1659  -9.1532  -9.1216  -9.0838  -9.0315  -9.0117  -8.9977  -8.9781
    -6.9732  -6.9582  -6.9519  -6.9454  -6.9420  -6.9316  -6.9217  -6.9163
    -6.9080  -6.8756  -6.8266  -6.8092  -6.8034  -6.7922  -6.7810  -6.7757
    -5.8980  -5.4799  -5.4503  -5.4436  -5.0552  -5.0413  -5.0059  -4.8493
    -4.8301  -4.8257  -4.8104  -4.8047  -4.8036  -4.7817  -4.7776  -4.5759
    -2.8051  -2.7804  -2.7738  -2.7674  -2.7605  -2.7559  -2.7435  -2.7413
    -2.7354  -2.7280  -2.7216  -2.7100  -2.7068  -2.7026  -2.6974  -2.6913
    -0.8825  -0.8382  -0.8227  -0.7984  -0.7695  -0.7494  -0.7422  -0.7222
    -0.6621  -0.6098  -0.5989  -0.5574   0.2211   0.2906   0.2971   0.3041
     0.4003   0.4230   0.4269   0.4679   0.4882   0.5471   0.5704   0.5798
     0.6023   0.7247   0.7466   0.7757   0.7957   0.8158   0.8753   0.9108
     0.9186   0.9422   0.9485   0.9604   0.9767   1.0014   1.0121   1.0247
     1.0392   1.0729   1.0978   1.1164   1.1316   1.1461   1.1720   1.1786
     1.2107   1.2155   1.2269   1.2398   1.2429   1.2636   1.2788   1.3069
     1.3165   1.3481   1.3644   1.4190   1.4638   1.4705   1.4914   1.5630
     1.5958   1.6182   1.6700   1.6802   1.7152   1.7828   1.8575   2.0466

          k = 0.1248 0.1267 0.3865 (299842 PWs)   bands (ev):

   -17.5176 -17.4929 -17.4587 -17.4327 -17.4312 -17.4293 -17.4240 -17.4214
   -14.2946 -14.2885 -14.2860 -14.2825 -14.2800 -14.2782 -14.2747 -14.2728
   -14.2700 -14.2684 -14.2670 -14.2640 -14.2606 -14.2578 -14.2559 -14.2551
   -14.2503 -14.2474 -14.2464 -14.2458 -14.2457 -14.2451 -14.2449 -14.2426
   -14.2423 -14.2373 -14.2353 -14.2352 -14.2350 -14.2340 -14.2327 -14.2316
   -14.2290 -14.2274 -14.2260 -14.2254 -14.2201 -14.2170 -14.2148 -14.2071
   -10.4916 -10.4690 -10.4607 -10.4596 -10.4500 -10.4449 -10.4278 -10.4248
    -9.6553  -9.5893  -9.4875  -9.4758  -9.4266  -9.4151  -9.3278  -9.3037
    -9.2831  -9.2559  -9.2233  -9.2138  -9.2040  -9.1957  -9.1792  -9.1697
    -9.1501  -9.1218  -9.1135  -9.0927  -9.0605  -9.0398  -8.9988  -8.9825
    -6.9789  -6.9536  -6.9486  -6.9448  -6.9414  -6.9329  -6.9214  -6.9179
    -6.9060  -6.8813  -6.8218  -6.8028  -6.7962  -6.7932  -6.7871  -6.7820
    -5.7771  -5.5917  -5.3643  -5.3302  -5.1839  -5.1499  -4.9632  -4.8661
    -4.8377  -4.8272  -4.8103  -4.8056  -4.7949  -4.7850  -4.7684  -4.6954
    -2.8040  -2.7746  -2.7711  -2.7673  -2.7566  -2.7508  -2.7447  -2.7431
    -2.7368  -2.7269  -2.7233  -2.7174  -2.7061  -2.7029  -2.6998  -2.6912
    -0.8076  -0.7915  -0.7597  -0.7205  -0.7174  -0.7049  -0.6528  -0.6446
    -0.4828  -0.4038  -0.3737  -0.2698   0.0485   0.1233   0.1423   0.2297
     0.3346   0.3498   0.3832   0.4040   0.4325   0.4528   0.4624   0.4886
     0.5038   0.5404   0.7454   0.7622   0.7820   0.8105   0.8700   0.8963
     0.9073   0.9220   0.9435   0.9670   0.9879   1.0120   1.0290   1.0451
     1.0572   1.0699   1.0759   1.0973   1.1106   1.1325   1.1376   1.1695
     1.1975   1.2086   1.2269   1.2346   1.2519   1.2646   1.2785   1.3052
     1.3484   1.3605   1.3807   1.4125   1.4322   1.4601   1.4646   1.5444
     1.5900   1.6132   1.6368   1.6664   1.6748   1.6856   1.7520   1.8491

          k = 0.1248 0.3802 0.1288 (299762 PWs)   bands (ev):

   -17.5176 -17.4929 -17.4587 -17.4327 -17.4313 -17.4293 -17.4240 -17.4214
   -14.2955 -14.2893 -14.2863 -14.2830 -14.2777 -14.2772 -14.2743 -14.2724
   -14.2703 -14.2690 -14.2685 -14.2624 -14.2613 -14.2590 -14.2559 -14.2551
   -14.2494 -14.2474 -14.2464 -14.2458 -14.2458 -14.2451 -14.2448 -14.2425
   -14.2422 -14.2373 -14.2354 -14.2352 -14.2349 -14.2340 -14.2327 -14.2315
   -14.2290 -14.2274 -14.2261 -14.2254 -14.2201 -14.2170 -14.2148 -14.2071
   -10.4912 -10.4685 -10.4596 -10.4586 -10.4492 -10.4459 -10.4293 -10.4265
    -9.6502  -9.5747  -9.4961  -9.4894  -9.4139  -9.4021  -9.3350  -9.2974
    -9.2859  -9.2797  -9.2484  -9.2406  -9.2305  -9.1815  -9.1804  -9.1599
    -9.1362  -9.1003  -9.0888  -9.0766  -9.0482  -9.0288  -9.0155  -9.0038
    -6.9728  -6.9578  -6.9515  -6.9455  -6.9417  -6.9320  -6.9223  -6.9168
    -6.9077  -6.8752  -6.8261  -6.8092  -6.8038  -6.7909  -6.7830  -6.7762
    -5.7777  -5.5882  -5.3680  -5.3362  -5.1912  -5.1481  -4.9485  -4.8709
    -4.8382  -4.8198  -4.8119  -4.8038  -4.7977  -4.7862  -4.7694  -4.6873
    -2.7973  -2.7813  -2.7719  -2.7608  -2.7561  -2.7519  -2.7459  -2.7434
    -2.7390  -2.7306  -2.7246  -2.7196  -2.7066  -2.7004  -2.6974  -2.6922
    -0.8586  -0.8246  -0.7865  -0.7810  -0.7557  -0.7319  -0.6513  -0.5868
    -0.4357  -0.3900  -0.2806  -0.2306   0.0917   0.1458   0.2635   0.2890
     0.3209   0.3399   0.3464   0.3686   0.4468   0.4550   0.4694   0.5450
     0.5517   0.6228   0.6258   0.6447   0.7214   0.8077   0.8191   0.8318
     0.8869   0.9158   0.9248   0.9518   0.9783   0.9846   1.0004   1.0197
     1.0263   1.0446   1.0923   1.1150   1.1383   1.1521   1.1933   1.2034
     1.2158   1.2240   1.2386   1.2552   1.2613   1.2791   1.3070   1.3209
     1.3427   1.3523   1.4050   1.4132   1.4660   1.4777   1.4962   1.5227
     1.5586   1.5732   1.5773   1.5954   1.6219   1.6551   1.8117   1.8606

          k = 0.1248 0.3802 0.3865 (299775 PWs)   bands (ev):

   -17.5176 -17.4929 -17.4587 -17.4327 -17.4312 -17.4293 -17.4240 -17.4215
   -14.2945 -14.2879 -14.2858 -14.2824 -14.2791 -14.2778 -14.2738 -14.2721
   -14.2702 -14.2689 -14.2680 -14.2646 -14.2606 -14.2588 -14.2559 -14.2551
   -14.2503 -14.2474 -14.2464 -14.2458 -14.2458 -14.2456 -14.2451 -14.2425
   -14.2422 -14.2373 -14.2353 -14.2352 -14.2350 -14.2341 -14.2327 -14.2316
   -14.2290 -14.2274 -14.2260 -14.2254 -14.2201 -14.2170 -14.2148 -14.2071
   -10.4907 -10.4667 -10.4605 -10.4588 -10.4488 -10.4463 -10.4298 -10.4271
    -9.6177  -9.5556  -9.5398  -9.4848  -9.4592  -9.4018  -9.3771  -9.3371
    -9.2881  -9.2570  -9.2095  -9.2055  -9.1997  -9.1692  -9.1519  -9.1478
    -9.1212  -9.1169  -9.1099  -9.0724  -9.0678  -9.0425  -9.0259  -9.0062
    -6.9787  -6.9529  -6.9483  -6.9451  -6.9416  -6.9332  -6.9221  -6.9179
    -6.9055  -6.8813  -6.8216  -6.8026  -6.7962  -6.7928  -6.7877  -6.7823
    -5.6599  -5.4787  -5.4703  -5.2915  -5.2555  -5.0913  -5.0803  -4.9436
    -4.8386  -4.8199  -4.8126  -4.8042  -4.7974  -4.7880  -4.7736  -4.7536
    -2.7968  -2.7833  -2.7746  -2.7607  -2.7544  -2.7502  -2.7455  -2.7419
    -2.7376  -2.7315  -2.7233  -2.7166  -2.7058  -2.7019  -2.6979  -2.6914
    -0.7988  -0.7409  -0.7340  -0.6804  -0.5358  -0.4550  -0.4365  -0.3898
    -0.3177  -0.3040  -0.2926  -0.2815   0.0625   0.1057   0.1336   0.1446
     0.2115   0.2525   0.2700   0.3292   0.3745   0.4081   0.4236   0.4328
     0.5119   0.5428   0.6118   0.6297   0.7070   0.7279   0.7954   0.8287
     0.8629   0.8852   0.9000   0.9396   0.9579   0.9689   0.9940   1.0103
     1.0209   1.0342   1.0496   1.0613   1.1035   1.1145   1.1340   1.1543
     1.2055   1.2289   1.2489   1.2535   1.2614   1.2873   1.3085   1.3227
     1.3748   1.3876   1.4026   1.4322   1.4481   1.4684   1.4880   1.4950
     1.5088   1.5412   1.5769   1.5855   1.6135   1.6450   1.6649   1.7001

          k = 0.3744 0.1267 0.1288 (299843 PWs)   bands (ev):

   -17.5176 -17.4929 -17.4587 -17.4327 -17.4313 -17.4293 -17.4240 -17.4215
   -14.2946 -14.2895 -14.2861 -14.2828 -14.2794 -14.2784 -14.2756 -14.2718
   -14.2709 -14.2673 -14.2668 -14.2630 -14.2611 -14.2587 -14.2559 -14.2551
   -14.2500 -14.2474 -14.2464 -14.2458 -14.2458 -14.2451 -14.2443 -14.2426
   -14.2423 -14.2373 -14.2353 -14.2352 -14.2349 -14.2340 -14.2327 -14.2315
   -14.2290 -14.2274 -14.2261 -14.2254 -14.2201 -14.2170 -14.2148 -14.2071
   -10.4920 -10.4692 -10.4619 -10.4579 -10.4495 -10.4438 -10.4287 -10.4254
    -9.6492  -9.5892  -9.4915  -9.4813  -9.4210  -9.4033  -9.3334  -9.3017
    -9.2841  -9.2758  -9.2436  -9.2311  -9.2009  -9.1902  -9.1807  -9.1554
    -9.1312  -9.1173  -9.1062  -9.0918  -9.0523  -9.0259  -9.0207  -8.9866
    -6.9731  -6.9578  -6.9517  -6.9449  -6.9415  -6.9317  -6.9220  -6.9169
    -6.9079  -6.8757  -6.8267  -6.8091  -6.8039  -6.7906  -6.7807  -6.7775
    -5.7855  -5.6113  -5.3461  -5.3407  -5.1814  -5.1692  -4.9254  -4.8676
    -4.8396  -4.8152  -4.8116  -4.8067  -4.7939  -4.7798  -4.7760  -4.6822
    -2.8026  -2.7797  -2.7749  -2.7625  -2.7585  -2.7539  -2.7443  -2.7423
    -2.7353  -2.7276  -2.7173  -2.7112  -2.7080  -2.7052  -2.7013  -2.6951
    -0.8622  -0.8215  -0.8067  -0.7711  -0.7469  -0.7114  -0.6364  -0.6045
    -0.4523  -0.3839  -0.3002  -0.2298   0.0887   0.1583   0.2620   0.2832
     0.3128   0.3261   0.3447   0.3629   0.4273   0.4394   0.4527   0.5220
     0.5440   0.6087   0.6201   0.6608   0.7000   0.7841   0.8141   0.8198
     0.8715   0.8918   0.9315   0.9708   0.9840   1.0156   1.0210   1.0372
     1.0530   1.0627   1.0941   1.1054   1.1222   1.1477   1.1938   1.2097
     1.2237   1.2329   1.2398   1.2495   1.2750   1.2819   1.2957   1.3074
     1.3241   1.3429   1.3862   1.4223   1.4502   1.4749   1.4956   1.5504
     1.5684   1.5828   1.5964   1.6037   1.6345   1.6424   1.8781   1.9015

          k = 0.3744 0.1267 0.3865 (299847 PWs)   bands (ev):

   -17.5176 -17.4929 -17.4587 -17.4327 -17.4313 -17.4293 -17.4240 -17.4215
   -14.2934 -14.2883 -14.2843 -14.2833 -14.2801 -14.2798 -14.2750 -14.2728
   -14.2691 -14.2674 -14.2667 -14.2639 -14.2621 -14.2580 -14.2559 -14.2551
   -14.2509 -14.2474 -14.2464 -14.2458 -14.2458 -14.2451 -14.2450 -14.2426
   -14.2423 -14.2373 -14.2353 -14.2352 -14.2349 -14.2340 -14.2327 -14.2316
   -14.2290 -14.2274 -14.2260 -14.2254 -14.2201 -14.2170 -14.2148 -14.2071
   -10.4913 -10.4685 -10.4604 -10.4592 -10.4502 -10.4440 -10.4289 -10.4261
    -9.6158  -9.5539  -9.5518  -9.4917  -9.4558  -9.3997  -9.3828  -9.3466
    -9.2452  -9.2263  -9.2138  -9.2025  -9.1904  -9.1799  -9.1639  -9.1534
    -9.1351  -9.1292  -9.1147  -9.0793  -9.0702  -9.0407  -9.0237  -8.9985
    -6.9789  -6.9524  -6.9488  -6.9450  -6.9411  -6.9328  -6.9219  -6.9180
    -6.9057  -6.8813  -6.8218  -6.8028  -6.7970  -6.7920  -6.7869  -6.7827
    -5.6675  -5.4942  -5.4854  -5.3126  -5.2312  -5.0809  -5.0562  -4.9361
    -4.8384  -4.8156  -4.8109  -4.8032  -4.7990  -4.7874  -4.7761  -4.7537
    -2.8020  -2.7747  -2.7708  -2.7624  -2.7557  -2.7522  -2.7454  -2.7423
    -2.7373  -2.7275  -2.7193  -2.7155  -2.7099  -2.7032  -2.7005  -2.6965
    -0.7897  -0.7426  -0.7283  -0.6803  -0.5242  -0.4562  -0.4262  -0.3976
    -0.3531  -0.3045  -0.2903  -0.2672   0.0616   0.0706   0.1233   0.1514
     0.2130   0.2307   0.2496   0.3110   0.4021   0.4077   0.4206   0.4296
     0.5176   0.5665   0.6176   0.6557   0.6682   0.7160   0.7303   0.7839
     0.8126   0.8662   0.8739   0.9029   0.9215   0.9694   1.0110   1.0301
     1.0365   1.0505   1.0566   1.0767   1.1118   1.1397   1.1664   1.1717
     1.2184   1.2502   1.2558   1.2671   1.2800   1.2998   1.3106   1.3304
     1.3520   1.3750   1.3908   1.4166   1.4490   1.4707   1.4750   1.5291
     1.5423   1.5580   1.5801   1.5847   1.6267   1.6530   1.6975   1.7248

          k = 0.3744 0.3802 0.1288 (299754 PWs)   bands (ev):

   -17.5176 -17.4929 -17.4587 -17.4327 -17.4313 -17.4293 -17.4240 -17.4215
   -14.2945 -14.2888 -14.2861 -14.2824 -14.2791 -14.2775 -14.2748 -14.2720
   -14.2702 -14.2680 -14.2678 -14.2631 -14.2614 -14.2597 -14.2558 -14.2551
   -14.2501 -14.2474 -14.2464 -14.2458 -14.2458 -14.2451 -14.2448 -14.2425
   -14.2422 -14.2373 -14.2353 -14.2352 -14.2349 -14.2340 -14.2327 -14.2315
   -14.2290 -14.2274 -14.2261 -14.2254 -14.2201 -14.2170 -14.2148 -14.2071
   -10.4913 -10.4696 -10.4589 -10.4574 -10.4496 -10.4462 -10.4293 -10.4262
    -9.6084  -9.5698  -9.5493  -9.4587  -9.4515  -9.4017  -9.3830  -9.3349
    -9.2843  -9.2766  -9.2472  -9.2358  -9.1884  -9.1485  -9.1418  -9.1257
    -9.1167  -9.1096  -9.0962  -9.0853  -9.0576  -9.0444  -9.0384  -9.0104
    -6.9728  -6.9578  -6.9518  -6.9447  -6.9417  -6.9319  -6.9223  -6.9168
    -6.9067  -6.8753  -6.8260  -6.8091  -6.8034  -6.7912  -6.7824  -6.7776
    -5.6686  -5.5047  -5.4758  -5.3183  -5.2407  -5.0687  -5.0412  -4.9468
    -4.8413  -4.8210  -4.8094  -4.8039  -4.7985  -4.7834  -4.7735  -4.7450
    -2.7956  -2.7797  -2.7716  -2.7587  -2.7544  -2.7503  -2.7455  -2.7430
    -2.7380  -2.7316  -2.7228  -2.7192  -2.7092  -2.7042  -2.6994  -2.6942
    -0.8339  -0.7933  -0.7576  -0.7078  -0.5020  -0.4753  -0.4504  -0.3449
    -0.3293  -0.3051  -0.2746  -0.2328   0.0644   0.1331   0.1488   0.2190
     0.2825   0.2909   0.3182   0.3305   0.3476   0.3663   0.3824   0.4418
     0.5406   0.5738   0.5903   0.6038   0.7065   0.7184   0.7356   0.7581
     0.7819   0.8056   0.8630   0.8839   0.9050   0.9258   0.9641   0.9702
     1.0163   1.0546   1.0810   1.1131   1.1383   1.1732   1.1822   1.1919
     1.2140   1.2287   1.2389   1.2612   1.2725   1.2967   1.3129   1.3512
     1.3909   1.4156   1.4231   1.4292   1.4585   1.4724   1.4843   1.4934
     1.5225   1.5378   1.5497   1.5572   1.5731   1.6540   1.6735   1.6949

          k = 0.3744 0.3802 0.3865 (299819 PWs)   bands (ev):

   -17.5176 -17.4929 -17.4587 -17.4327 -17.4313 -17.4293 -17.4240 -17.4215
   -14.2934 -14.2876 -14.2842 -14.2832 -14.2800 -14.2787 -14.2741 -14.2721
   -14.2691 -14.2680 -14.2677 -14.2645 -14.2622 -14.2589 -14.2558 -14.2551
   -14.2510 -14.2474 -14.2464 -14.2458 -14.2458 -14.2456 -14.2451 -14.2425
   -14.2423 -14.2373 -14.2353 -14.2352 -14.2349 -14.2341 -14.2327 -14.2316
   -14.2290 -14.2274 -14.2260 -14.2254 -14.2201 -14.2170 -14.2148 -14.2071
   -10.4908 -10.4680 -10.4603 -10.4570 -10.4490 -10.4468 -10.4297 -10.4268
    -9.5780  -9.5356  -9.5206  -9.5139  -9.4714  -9.4547  -9.4268  -9.3881
    -9.2459  -9.2187  -9.1978  -9.1874  -9.1772  -9.1574  -9.1442  -9.1386
    -9.1255  -9.1146  -9.0978  -9.0813  -9.0667  -9.0568  -9.0477  -9.0179
    -6.9786  -6.9525  -6.9489  -6.9445  -6.9409  -6.9333  -6.9219  -6.9179
    -6.9048  -6.8814  -6.8217  -6.8027  -6.7967  -6.7923  -6.7875  -6.7828
    -5.5550  -5.3898  -5.3787  -5.3609  -5.2156  -5.2097  -5.1818  -5.0560
    -4.8402  -4.8207  -4.8098  -4.8036  -4.8001  -4.7906  -4.7747  -4.7686
    -2.7955  -2.7821  -2.7744  -2.7582  -2.7528  -2.7499  -2.7452  -2.7435
    -2.7375  -2.7315  -2.7200  -2.7166  -2.7091  -2.7017  -2.6989  -2.6950
    -0.5475  -0.5237  -0.4940  -0.4494  -0.4309  -0.3767  -0.3655  -0.3473
    -0.3370  -0.3094  -0.2999  -0.2168   0.0635   0.0800   0.1112   0.1302
     0.1797   0.2051   0.2209   0.2282   0.2790   0.2871   0.2976   0.3561
     0.5888   0.6047   0.6187   0.6408   0.6705   0.6986   0.7271   0.7533
     0.7660   0.7932   0.8356   0.8596   0.8733   0.8990   0.9053   0.9285
     0.9487   0.9710   0.9897   1.0083   1.0335   1.0477   1.0728   1.0889
     1.2368   1.2656   1.2762   1.2835   1.3032   1.3175   1.3320   1.3576
     1.3981   1.4031   1.4198   1.4337   1.4515   1.4667   1.4708   1.4962
     1.5032   1.5352   1.5518   1.5577   1.5656   1.5785   1.5898   1.5939

          k =-0.1248-0.1267 0.1288 (299781 PWs)   bands (ev):

   -17.5176 -17.4929 -17.4587 -17.4327 -17.4313 -17.4293 -17.4240 -17.4214
   -14.2955 -14.2899 -14.2864 -14.2833 -14.2788 -14.2774 -14.2752 -14.2723
   -14.2710 -14.2680 -14.2678 -14.2620 -14.2610 -14.2582 -14.2559 -14.2551
   -14.2493 -14.2474 -14.2464 -14.2458 -14.2457 -14.2451 -14.2443 -14.2426
   -14.2422 -14.2373 -14.2354 -14.2352 -14.2349 -14.2340 -14.2327 -14.2315
   -14.2290 -14.2274 -14.2261 -14.2253 -14.2201 -14.2170 -14.2148 -14.2071
   -10.4923 -10.4701 -10.4618 -10.4586 -10.4495 -10.4442 -10.4276 -10.4243
    -9.6902  -9.5252  -9.5202  -9.5069  -9.3591  -9.3452  -9.3364  -9.3009
    -9.2827  -9.2698  -9.2456  -9.2420  -9.2311  -9.2010  -9.1884  -9.1769
    -9.1651  -9.1531  -9.1209  -9.0843  -9.0318  -9.0118  -8.9976  -8.9782
    -6.9732  -6.9582  -6.9519  -6.9455  -6.9420  -6.9315  -6.9218  -6.9163
    -6.9077  -6.8756  -6.8266  -6.8092  -6.8034  -6.7922  -6.7811  -6.7757
    -5.8979  -5.4799  -5.4502  -5.4438  -5.0551  -5.0412  -5.0059  -4.8494
    -4.8305  -4.8257  -4.8104  -4.8048  -4.8035  -4.7819  -4.7775  -4.5754
    -2.8050  -2.7798  -2.7739  -2.7669  -2.7582  -2.7576  -2.7442  -2.7411
    -2.7353  -2.7283  -2.7215  -2.7112  -2.7062  -2.7031  -2.6969  -2.6919
    -0.8877  -0.8370  -0.8212  -0.8011  -0.7697  -0.7548  -0.7340  -0.7194
    -0.6615  -0.6100  -0.5987  -0.5571   0.2218   0.2912   0.2962   0.3025
     0.3970   0.4207   0.4310   0.4670   0.4869   0.5488   0.5724   0.5834
     0.6029   0.7234   0.7470   0.7840   0.7926   0.8100   0.8783   0.9096
     0.9139   0.9409   0.9471   0.9690   0.9761   0.9901   1.0117   1.0205
     1.0372   1.0788   1.1003   1.1191   1.1311   1.1424   1.1710   1.1849
     1.2066   1.2166   1.2327   1.2395   1.2473   1.2645   1.2784   1.3020
     1.3165   1.3469   1.3619   1.4211   1.4635   1.4718   1.4903   1.5616
     1.5949   1.6184   1.6717   1.6790   1.7156   1.7824   1.8574   2.0483

          k =-0.1248 0.1267-0.1288 (299781 PWs)   bands (ev):

   -17.5176 -17.4929 -17.4587 -17.4327 -17.4313 -17.4293 -17.4240 -17.4214
   -14.2955 -14.2899 -14.2864 -14.2833 -14.2788 -14.2774 -14.2752 -14.2723
   -14.2710 -14.2680 -14.2678 -14.2620 -14.2610 -14.2582 -14.2559 -14.2551
   -14.2493 -14.2474 -14.2464 -14.2458 -14.2457 -14.2451 -14.2443 -14.2426
   -14.2422 -14.2373 -14.2354 -14.2352 -14.2349 -14.2340 -14.2327 -14.2315
   -14.2290 -14.2274 -14.2261 -14.2253 -14.2201 -14.2170 -14.2148 -14.2071
   -10.4925 -10.4710 -10.4614 -10.4586 -10.4496 -10.4445 -10.4270 -10.4236
    -9.6950  -9.5234  -9.5128  -9.4996  -9.3688  -9.3557  -9.3395  -9.2948
    -9.2803  -9.2715  -9.2530  -9.2357  -9.2282  -9.2013  -9.1888  -9.1779
    -9.1625  -9.1493  -9.1206  -9.0857  -9.0334  -9.0131  -8.9966  -8.9770
    -6.9731  -6.9581  -6.9516  -6.9456  -6.9417  -6.9316  -6.9221  -6.9165
    -6.9081  -6.8756  -6.8266  -6.8092  -6.8038  -6.7912  -6.7815  -6.7757
    -5.8981  -5.4792  -5.4489  -5.4433  -5.0547  -5.0452  -5.0118  -4.8484
    -4.8297  -4.8248  -4.8096  -4.8042  -4.8013  -4.7798  -4.7759  -4.5779
    -2.8053  -2.7805  -2.7724  -2.7680  -2.7591  -2.7578  -2.7428  -2.7398
    -2.7352  -2.7303  -2.7221  -2.7121  -2.7062  -2.7028  -2.6963  -2.6906
    -0.9025  -0.8738  -0.8076  -0.7850  -0.7703  -0.7452  -0.7302  -0.7122
    -0.6636  -0.6094  -0.5967  -0.5394   0.2196   0.2832   0.3071   0.3132
     0.3782   0.4059   0.4354   0.4538   0.4756   0.5168   0.5786   0.5887
     0.6364   0.7279   0.7447   0.7669   0.7819   0.8194   0.8663   0.8784
     0.9129   0.9351   0.9556   0.9715   1.0002   1.0181   1.0278   1.0530
     1.0633   1.0793   1.0953   1.1141   1.1278   1.1424   1.1536   1.1767
     1.1985   1.2114   1.2167   1.2284   1.2405   1.2726   1.2787   1.3019
     1.3360   1.3472   1.3584   1.4048   1.4601   1.4787   1.4983   1.5651
     1.5936   1.6177   1.6374   1.6672   1.7723   1.7792   1.8506   2.0719

          k = 0.1248-0.1267-0.1288 (299781 PWs)   bands (ev):

   -17.5176 -17.4929 -17.4587 -17.4327 -17.4313 -17.4293 -17.4240 -17.4214
   -14.2955 -14.2899 -14.2864 -14.2833 -14.2788 -14.2774 -14.2752 -14.2723
   -14.2710 -14.2680 -14.2678 -14.2620 -14.2610 -14.2582 -14.2559 -14.2551
   -14.2493 -14.2474 -14.2464 -14.2458 -14.2457 -14.2451 -14.2443 -14.2426
   -14.2422 -14.2373 -14.2354 -14.2352 -14.2349 -14.2340 -14.2327 -14.2315
   -14.2290 -14.2274 -14.2261 -14.2253 -14.2201 -14.2170 -14.2148 -14.2071
   -10.4925 -10.4710 -10.4614 -10.4585 -10.4496 -10.4444 -10.4270 -10.4236
    -9.6951  -9.5237  -9.5131  -9.4987  -9.3697  -9.3556  -9.3393  -9.2940
    -9.2795  -9.2727  -9.2526  -9.2384  -9.2270  -9.2005  -9.1899  -9.1764
    -9.1619  -9.1492  -9.1220  -9.0851  -9.0337  -9.0127  -8.9967  -8.9770
    -6.9731  -6.9579  -6.9517  -6.9456  -6.9417  -6.9316  -6.9218  -6.9166
    -6.9084  -6.8755  -6.8267  -6.8092  -6.8038  -6.7912  -6.7814  -6.7757
    -5.8983  -5.4792  -5.4488  -5.4432  -5.0551  -5.0451  -5.0119  -4.8484
    -4.8296  -4.8245  -4.8096  -4.8042  -4.8014  -4.7796  -4.7760  -4.5779
    -2.8052  -2.7812  -2.7727  -2.7679  -2.7607  -2.7568  -2.7429  -2.7397
    -2.7351  -2.7293  -2.7222  -2.7107  -2.7062  -2.7026  -2.6967  -2.6914
    -0.9033  -0.8741  -0.8080  -0.7810  -0.7673  -0.7505  -0.7334  -0.7083
    -0.6637  -0.6095  -0.5973  -0.5401   0.2200   0.2834   0.3078   0.3132
     0.3798   0.4016   0.4394   0.4566   0.4716   0.5146   0.5803   0.5870
     0.6363   0.7288   0.7490   0.7657   0.7841   0.8192   0.8691   0.8784
     0.9069   0.9302   0.9572   0.9711   0.9997   1.0103   1.0280   1.0583
     1.0651   1.0826   1.0972   1.1078   1.1308   1.1457   1.1544   1.1750
     1.1991   1.2072   1.2151   1.2319   1.2425   1.2694   1.2816   1.2976
     1.3419   1.3461   1.3584   1.4041   1.4597   1.4792   1.4967   1.5652
     1.5939   1.6183   1.6365   1.6669   1.7731   1.7781   1.8511   2.0725

          k =-0.1248-0.1267 0.3865 (299842 PWs)   bands (ev):

   -17.5176 -17.4929 -17.4587 -17.4327 -17.4312 -17.4293 -17.4240 -17.4214
   -14.2946 -14.2885 -14.2860 -14.2825 -14.2800 -14.2782 -14.2747 -14.2728
   -14.2700 -14.2684 -14.2670 -14.2640 -14.2606 -14.2578 -14.2559 -14.2551
   -14.2503 -14.2474 -14.2464 -14.2458 -14.2457 -14.2451 -14.2449 -14.2426
   -14.2423 -14.2373 -14.2353 -14.2352 -14.2350 -14.2340 -14.2327 -14.2316
   -14.2290 -14.2274 -14.2260 -14.2254 -14.2201 -14.2170 -14.2148 -14.2071
   -10.4915 -10.4690 -10.4606 -10.4596 -10.4500 -10.4449 -10.4279 -10.4247
    -9.6542  -9.5908  -9.4878  -9.4775  -9.4247  -9.4139  -9.3295  -9.3012
    -9.2838  -9.2560  -9.2229  -9.2143  -9.2061  -9.1954  -9.1788  -9.1672
    -9.1527  -9.1208  -9.1123  -9.0927  -9.0613  -9.0401  -8.9986  -8.9825
    -6.9789  -6.9536  -6.9485  -6.9451  -6.9414  -6.9329  -6.9216  -6.9179
    -6.9056  -6.8815  -6.8217  -6.8028  -6.7959  -6.7933  -6.7872  -6.7820
    -5.7769  -5.5919  -5.3643  -5.3304  -5.1838  -5.1498  -4.9626  -4.8672
    -4.8380  -4.8272  -4.8103  -4.8057  -4.7948  -4.7854  -4.7686  -4.6943
    -2.8039  -2.7743  -2.7703  -2.7670  -2.7552  -2.7515  -2.7457  -2.7430
    -2.7356  -2.7285  -2.7232  -2.7181  -2.7053  -2.7037  -2.6995  -2.6918
    -0.8092  -0.7905  -0.7611  -0.7257  -0.7186  -0.6999  -0.6535  -0.6450
    -0.4788  -0.4008  -0.3724  -0.2698   0.0453   0.1219   0.1412   0.2340
     0.3307   0.3505   0.3867   0.4062   0.4323   0.4481   0.4652   0.4902
     0.5005   0.5406   0.7469   0.7632   0.7806   0.8047   0.8688   0.8939
     0.9062   0.9259   0.9423   0.9699   0.9846   1.0128   1.0296   1.0456
     1.0555   1.0714   1.0797   1.0972   1.1101   1.1334   1.1385   1.1682
     1.2004   1.2088   1.2266   1.2326   1.2530   1.2677   1.2709   1.3078
     1.3489   1.3640   1.3799   1.4139   1.4349   1.4570   1.4623   1.5428
     1.5884   1.6119   1.6371   1.6682   1.6781   1.6821   1.7508   1.8514

          k =-0.1248 0.1267-0.3865 (299842 PWs)   bands (ev):

   -17.5176 -17.4929 -17.4587 -17.4327 -17.4312 -17.4293 -17.4240 -17.4214
   -14.2946 -14.2885 -14.2860 -14.2825 -14.2800 -14.2782 -14.2747 -14.2728
   -14.2700 -14.2684 -14.2670 -14.2640 -14.2606 -14.2578 -14.2559 -14.2551
   -14.2503 -14.2474 -14.2464 -14.2458 -14.2457 -14.2451 -14.2449 -14.2426
   -14.2423 -14.2373 -14.2353 -14.2352 -14.2350 -14.2340 -14.2327 -14.2316
   -14.2290 -14.2274 -14.2260 -14.2254 -14.2201 -14.2170 -14.2148 -14.2071
   -10.4917 -10.4698 -10.4608 -10.4590 -10.4500 -10.4455 -10.4273 -10.4240
    -9.6584  -9.5923  -9.4798  -9.4708  -9.4206  -9.4120  -9.3456  -9.3099
    -9.2834  -9.2552  -9.2217  -9.2109  -9.2046  -9.1973  -9.1806  -9.1654
    -9.1456  -9.1227  -9.1129  -9.0932  -9.0623  -9.0416  -8.9971  -8.9815
    -6.9789  -6.9532  -6.9483  -6.9454  -6.9417  -6.9327  -6.9221  -6.9179
    -6.9057  -6.8814  -6.8217  -6.8027  -6.7964  -6.7926  -6.7874  -6.7820
    -5.7762  -5.5901  -5.3645  -5.3322  -5.1856  -5.1531  -4.9602  -4.8615
    -4.8387  -4.8296  -4.8105  -4.8063  -4.7937  -4.7840  -4.7674  -4.6969
    -2.8041  -2.7740  -2.7712  -2.7659  -2.7559  -2.7508  -2.7450  -2.7433
    -2.7346  -2.7307  -2.7244  -2.7184  -2.7063  -2.7023  -2.6995  -2.6904
    -0.8568  -0.7988  -0.7488  -0.7130  -0.6944  -0.6883  -0.6495  -0.6335
    -0.4900  -0.3956  -0.3682  -0.2743   0.0402   0.1213   0.1432   0.2308
     0.3216   0.3483   0.3903   0.4085   0.4176   0.4529   0.4649   0.4746
     0.4960   0.5646   0.7585   0.7686   0.7820   0.8073   0.8165   0.8457
     0.9228   0.9411   0.9619   0.9780   0.9941   1.0190   1.0306   1.0497
     1.0566   1.0598   1.0772   1.0949   1.1043   1.1347   1.1565   1.1680
     1.1849   1.2065   1.2194   1.2369   1.2504   1.2558   1.2839   1.3410
     1.3609   1.3681   1.3804   1.4093   1.4307   1.4578   1.4641   1.5432
     1.5826   1.6090   1.6251   1.6424   1.6529   1.6716   1.8006   1.8833

          k = 0.1248-0.1267-0.3865 (299842 PWs)   bands (ev):

   -17.5176 -17.4929 -17.4587 -17.4327 -17.4312 -17.4293 -17.4240 -17.4214
   -14.2946 -14.2885 -14.2860 -14.2825 -14.2800 -14.2782 -14.2747 -14.2728
   -14.2700 -14.2684 -14.2670 -14.2640 -14.2606 -14.2578 -14.2559 -14.2551
   -14.2503 -14.2474 -14.2464 -14.2458 -14.2457 -14.2451 -14.2449 -14.2426
   -14.2423 -14.2373 -14.2353 -14.2352 -14.2350 -14.2340 -14.2327 -14.2316
   -14.2290 -14.2274 -14.2260 -14.2254 -14.2201 -14.2170 -14.2148 -14.2071
   -10.4917 -10.4698 -10.4609 -10.4590 -10.4500 -10.4454 -10.4273 -10.4240
    -9.6586  -9.5922  -9.4806  -9.4695  -9.4205  -9.4123  -9.3462  -9.3091
    -9.2835  -9.2559  -9.2210  -9.2119  -9.2042  -9.1977  -9.1806  -9.1629
    -9.1476  -9.1227  -9.1122  -9.0938  -9.0629  -9.0408  -8.9972  -8.9814
    -6.9789  -6.9531  -6.9483  -6.9453  -6.9416  -6.9328  -6.9219  -6.9181
    -6.9061  -6.8813  -6.8217  -6.8028  -6.7961  -6.7929  -6.7873  -6.7820
    -5.7764  -5.5899  -5.3645  -5.3319  -5.1857  -5.1534  -4.9606  -4.8612
    -4.8385  -4.8296  -4.8105  -4.8062  -4.7941  -4.7837  -4.7674  -4.6971
    -2.8040  -2.7743  -2.7724  -2.7656  -2.7568  -2.7504  -2.7450  -2.7435
    -2.7353  -2.7280  -2.7246  -2.7180  -2.7054  -2.7028  -2.6999  -2.6911
    -0.8580  -0.7973  -0.7495  -0.7102  -0.6963  -0.6866  -0.6520  -0.6331
    -0.4890  -0.3978  -0.3671  -0.2754   0.0410   0.1244   0.1410   0.2317
     0.3225   0.3503   0.3868   0.4107   0.4140   0.4506   0.4684   0.4724
     0.4988   0.5658   0.7604   0.7660   0.7738   0.8128   0.8152   0.8448
     0.9238   0.9447   0.9590   0.9816   0.9959   1.0167   1.0328   1.0474
     1.0556   1.0646   1.0773   1.0931   1.0989   1.1320   1.1601   1.1697
     1.1839   1.2072   1.2206   1.2373   1.2458   1.2631   1.2797   1.3431
     1.3585   1.3695   1.3765   1.4108   1.4292   1.4588   1.4654   1.5419
     1.5846   1.6105   1.6207   1.6409   1.6525   1.6751   1.8007   1.8839

          k =-0.1248-0.3802 0.1288 (299762 PWs)   bands (ev):

   -17.5176 -17.4929 -17.4587 -17.4327 -17.4313 -17.4293 -17.4240 -17.4214
   -14.2955 -14.2893 -14.2863 -14.2830 -14.2777 -14.2772 -14.2743 -14.2724
   -14.2703 -14.2690 -14.2685 -14.2624 -14.2613 -14.2590 -14.2559 -14.2551
   -14.2494 -14.2474 -14.2464 -14.2458 -14.2458 -14.2451 -14.2448 -14.2425
   -14.2422 -14.2373 -14.2354 -14.2352 -14.2349 -14.2340 -14.2327 -14.2315
   -14.2290 -14.2274 -14.2261 -14.2254 -14.2201 -14.2170 -14.2148 -14.2071
   -10.4912 -10.4685 -10.4595 -10.4586 -10.4493 -10.4460 -10.4294 -10.4264
    -9.6496  -9.5751  -9.4971  -9.4900  -9.4133  -9.4024  -9.3332  -9.2983
    -9.2851  -9.2771  -9.2498  -9.2415  -9.2329  -9.1810  -9.1798  -9.1597
    -9.1356  -9.1005  -9.0876  -9.0776  -9.0485  -9.0290  -9.0152  -9.0040
    -6.9728  -6.9579  -6.9515  -6.9455  -6.9418  -6.9319  -6.9224  -6.9167
    -6.9075  -6.8752  -6.8260  -6.8092  -6.8038  -6.7908  -6.7831  -6.7762
    -5.7775  -5.5883  -5.3681  -5.3364  -5.1911  -5.1479  -4.9481  -4.8717
    -4.8383  -4.8197  -4.8119  -4.8038  -4.7978  -4.7863  -4.7694  -4.6865
    -2.7972  -2.7814  -2.7702  -2.7615  -2.7548  -2.7515  -2.7460  -2.7445
    -2.7379  -2.7327  -2.7240  -2.7207  -2.7058  -2.7004  -2.6973  -2.6933
    -0.8601  -0.8263  -0.7892  -0.7820  -0.7501  -0.7320  -0.6515  -0.5870
    -0.4343  -0.3874  -0.2813  -0.2291   0.0909   0.1439   0.2629   0.2884
     0.3194   0.3365   0.3490   0.3686   0.4491   0.4572   0.4750   0.5418
     0.5505   0.6213   0.6273   0.6416   0.7181   0.8124   0.8211   0.8334
     0.8869   0.9166   0.9251   0.9548   0.9762   0.9796   0.9957   1.0076
     1.0311   1.0503   1.0969   1.1121   1.1390   1.1535   1.1931   1.2019
     1.2182   1.2263   1.2426   1.2535   1.2654   1.2787   1.2999   1.3230
     1.3366   1.3507   1.3995   1.4215   1.4656   1.4837   1.4942   1.5193
     1.5577   1.5707   1.5806   1.5980   1.6233   1.6517   1.8119   1.8619

          k =-0.1248 0.3802-0.1288 (299762 PWs)   bands (ev):

   -17.5176 -17.4929 -17.4587 -17.4327 -17.4313 -17.4293 -17.4240 -17.4214
   -14.2955 -14.2893 -14.2863 -14.2830 -14.2777 -14.2772 -14.2743 -14.2724
   -14.2703 -14.2690 -14.2685 -14.2624 -14.2613 -14.2590 -14.2559 -14.2551
   -14.2494 -14.2474 -14.2464 -14.2458 -14.2458 -14.2451 -14.2448 -14.2425
   -14.2422 -14.2373 -14.2354 -14.2352 -14.2349 -14.2340 -14.2327 -14.2315
   -14.2290 -14.2274 -14.2261 -14.2254 -14.2201 -14.2170 -14.2148 -14.2071
   -10.4913 -10.4695 -10.4598 -10.4579 -10.4496 -10.4460 -10.4288 -10.4257
    -9.6599  -9.5628  -9.4918  -9.4764  -9.4300  -9.4106  -9.3343  -9.2942
    -9.2884  -9.2782  -9.2543  -9.2361  -9.2301  -9.1822  -9.1806  -9.1588
    -9.1338  -9.0962  -9.0898  -9.0751  -9.0520  -9.0325  -9.0164  -8.9998
    -6.9728  -6.9577  -6.9512  -6.9457  -6.9414  -6.9320  -6.9229  -6.9169
    -6.9078  -6.8752  -6.8261  -6.8091  -6.8042  -6.7896  -6.7839  -6.7763
    -5.7779  -5.5881  -5.3686  -5.3298  -5.1904  -5.1561  -4.9628  -4.8556
    -4.8376  -4.8252  -4.8094  -4.8027  -4.7926  -4.7857  -4.7652  -4.6950
    -2.7976  -2.7808  -2.7712  -2.7619  -2.7547  -2.7514  -2.7464  -2.7447
    -2.7358  -2.7318  -2.7270  -2.7209  -2.7066  -2.7008  -2.6961  -2.6918
    -0.8673  -0.8417  -0.7906  -0.7729  -0.7479  -0.7341  -0.6558  -0.5919
    -0.4170  -0.3640  -0.2566  -0.2136   0.0777   0.1059   0.2521   0.2713
     0.3211   0.3303   0.3634   0.3839   0.4245   0.4357   0.4608   0.5087
     0.5509   0.6255   0.6513   0.6858   0.7129   0.8168   0.8233   0.8348
     0.8881   0.9048   0.9228   0.9722   0.9790   0.9880   1.0039   1.0278
     1.0384   1.0543   1.0915   1.1049   1.1381   1.1451   1.1793   1.1995
     1.2145   1.2248   1.2440   1.2606   1.2634   1.2798   1.3013   1.3300
     1.3373   1.3550   1.3943   1.4130   1.4462   1.4726   1.4969   1.5262
     1.5433   1.5639   1.5770   1.5958   1.6282   1.6860   1.7911   1.9004

          k = 0.1248-0.3802-0.1288 (299762 PWs)   bands (ev):

   -17.5176 -17.4929 -17.4587 -17.4327 -17.4313 -17.4293 -17.4240 -17.4214
   -14.2955 -14.2893 -14.2863 -14.2830 -14.2777 -14.2772 -14.2743 -14.2724
   -14.2703 -14.2690 -14.2685 -14.2624 -14.2613 -14.2590 -14.2559 -14.2551
   -14.2494 -14.2474 -14.2464 -14.2458 -14.2458 -14.2451 -14.2448 -14.2425
   -14.2422 -14.2373 -14.2354 -14.2352 -14.2349 -14.2340 -14.2327 -14.2315
   -14.2290 -14.2274 -14.2261 -14.2254 -14.2201 -14.2170 -14.2148 -14.2071
   -10.4913 -10.4695 -10.4599 -10.4579 -10.4496 -10.4459 -10.4288 -10.4258
    -9.6603  -9.5620  -9.4909  -9.4764  -9.4307  -9.4127  -9.3324  -9.2948
    -9.2860  -9.2778  -9.2559  -9.2393  -9.2292  -9.1825  -9.1782  -9.1585
    -9.1346  -9.0964  -9.0900  -9.0754  -9.0514  -9.0317  -9.0171  -8.9998
    -6.9728  -6.9576  -6.9512  -6.9457  -6.9414  -6.9320  -6.9225  -6.9169
    -6.9082  -6.8751  -6.8261  -6.8091  -6.8042  -6.7896  -6.7838  -6.7763
    -5.7781  -5.5879  -5.3686  -5.3295  -5.1905  -5.1563  -4.9634  -4.8552
    -4.8373  -4.8253  -4.8095  -4.8026  -4.7925  -4.7854  -4.7651  -4.6955
    -2.7976  -2.7804  -2.7729  -2.7611  -2.7563  -2.7514  -2.7460  -2.7436
    -2.7373  -2.7299  -2.7270  -2.7202  -2.7058  -2.7003  -2.6967  -2.6927
    -0.8669  -0.8429  -0.7879  -0.7816  -0.7399  -0.7339  -0.6552  -0.5914
    -0.4183  -0.3663  -0.2565  -0.2153   0.0790   0.1086   0.2533   0.2719
     0.3196   0.3344   0.3636   0.3807   0.4232   0.4316   0.4561   0.5127
     0.5605   0.6238   0.6450   0.6863   0.7154   0.8171   0.8244   0.8357
     0.8911   0.9058   0.9224   0.9656   0.9773   0.9925   0.9995   1.0246
     1.0369   1.0537   1.0911   1.1063   1.1373   1.1489   1.1798   1.1978
     1.2147   1.2274   1.2419   1.2612   1.2692   1.2781   1.2976   1.3260
     1.3425   1.3552   1.3978   1.4081   1.4457   1.4724   1.4967   1.5293
     1.5438   1.5643   1.5752   1.5938   1.6303   1.6863   1.7907   1.9007

          k =-0.1248-0.3802 0.3865 (299775 PWs)   bands (ev):

   -17.5176 -17.4929 -17.4587 -17.4327 -17.4312 -17.4293 -17.4240 -17.4215
   -14.2945 -14.2879 -14.2858 -14.2824 -14.2791 -14.2778 -14.2738 -14.2721
   -14.2702 -14.2689 -14.2680 -14.2646 -14.2606 -14.2588 -14.2559 -14.2551
   -14.2503 -14.2474 -14.2464 -14.2458 -14.2458 -14.2456 -14.2451 -14.2425
   -14.2422 -14.2373 -14.2353 -14.2352 -14.2350 -14.2341 -14.2327 -14.2316
   -14.2290 -14.2274 -14.2260 -14.2254 -14.2201 -14.2170 -14.2148 -14.2071
   -10.4907 -10.4667 -10.4605 -10.4587 -10.4489 -10.4463 -10.4299 -10.4270
    -9.6160  -9.5567  -9.5426  -9.4817  -9.4609  -9.4010  -9.3787  -9.3341
    -9.2884  -9.2578  -9.2102  -9.2067  -9.1991  -9.1683  -9.1540  -9.1454
    -9.1220  -9.1158  -9.1100  -9.0705  -9.0690  -9.0445  -9.0249  -9.0064
    -6.9787  -6.9529  -6.9483  -6.9451  -6.9418  -6.9332  -6.9222  -6.9178
    -6.9053  -6.8814  -6.8216  -6.8027  -6.7961  -6.7927  -6.7879  -6.7823
    -5.6594  -5.4793  -5.4707  -5.2910  -5.2558  -5.0900  -5.0808  -4.9451
    -4.8387  -4.8199  -4.8126  -4.8042  -4.7975  -4.7881  -4.7733  -4.7530
    -2.7966  -2.7833  -2.7739  -2.7594  -2.7539  -2.7508  -2.7457  -2.7428
    -2.7357  -2.7338  -2.7232  -2.7174  -2.7050  -2.7020  -2.6979  -2.6922
    -0.7984  -0.7442  -0.7336  -0.6802  -0.5361  -0.4615  -0.4384  -0.3899
    -0.3129  -0.3019  -0.2901  -0.2690   0.0596   0.1008   0.1223   0.1463
     0.2121   0.2547   0.2711   0.3363   0.3714   0.4055   0.4251   0.4339
     0.5167   0.5380   0.6072   0.6299   0.7104   0.7292   0.7965   0.8279
     0.8641   0.8759   0.8986   0.9383   0.9593   0.9691   0.9947   1.0086
     1.0284   1.0332   1.0523   1.0595   1.1027   1.1166   1.1344   1.1560
     1.2060   1.2317   1.2468   1.2526   1.2649   1.2809   1.3056   1.3219
     1.3769   1.3848   1.4062   1.4385   1.4509   1.4652   1.4797   1.4975
     1.5140   1.5341   1.5747   1.5904   1.6141   1.6434   1.6639   1.7017

          k =-0.1248 0.3802-0.3865 (299775 PWs)   bands (ev):

   -17.5176 -17.4929 -17.4587 -17.4327 -17.4312 -17.4293 -17.4240 -17.4215
   -14.2945 -14.2879 -14.2858 -14.2824 -14.2791 -14.2778 -14.2738 -14.2721
   -14.2702 -14.2689 -14.2680 -14.2646 -14.2606 -14.2588 -14.2559 -14.2551
   -14.2503 -14.2474 -14.2464 -14.2458 -14.2458 -14.2456 -14.2451 -14.2425
   -14.2422 -14.2373 -14.2353 -14.2352 -14.2350 -14.2341 -14.2327 -14.2316
   -14.2290 -14.2274 -14.2260 -14.2254 -14.2201 -14.2170 -14.2148 -14.2071
   -10.4909 -10.4676 -10.4609 -10.4579 -10.4490 -10.4469 -10.4293 -10.4263
    -9.6244  -9.5611  -9.5329  -9.4742  -9.4451  -9.4013  -9.3913  -9.3486
    -9.2876  -9.2568  -9.2078  -9.2048  -9.2011  -9.1705  -9.1519  -9.1415
    -9.1246  -9.1154  -9.1038  -9.0765  -9.0702  -9.0483  -9.0209  -9.0042
    -6.9787  -6.9524  -6.9481  -6.9455  -6.9420  -6.9330  -6.9228  -6.9179
    -6.9052  -6.8814  -6.8216  -6.8026  -6.7965  -6.7921  -6.7880  -6.7823
    -5.6577  -5.4765  -5.4709  -5.2957  -5.2588  -5.0898  -5.0846  -4.9330
    -4.8404  -4.8253  -4.8092  -4.8038  -4.7968  -4.7895  -4.7717  -4.7548
    -2.7971  -2.7827  -2.7744  -2.7592  -2.7525  -2.7508  -2.7472  -2.7424
    -2.7354  -2.7328  -2.7264  -2.7176  -2.7058  -2.7014  -2.6975  -2.6908
    -0.8166  -0.7585  -0.7273  -0.6754  -0.5267  -0.4527  -0.4276  -0.3791
    -0.3174  -0.2984  -0.2751  -0.2516   0.0448   0.0799   0.1158   0.1442
     0.2012   0.2217   0.2940   0.3210   0.3662   0.4040   0.4254   0.4440
     0.5064   0.5499   0.6197   0.6349   0.6934   0.7262   0.7952   0.8125
     0.8607   0.8923   0.9280   0.9437   0.9705   0.9863   0.9929   1.0044
     1.0226   1.0352   1.0422   1.0533   1.0661   1.1134   1.1323   1.1796
     1.1985   1.2300   1.2428   1.2657   1.2773   1.2869   1.3011   1.3402
     1.3824   1.4004   1.4132   1.4337   1.4496   1.4600   1.4768   1.4845
     1.5121   1.5217   1.5342   1.5641   1.6038   1.6401   1.7010   1.7509

          k = 0.1248-0.3802-0.3865 (299775 PWs)   bands (ev):

   -17.5176 -17.4929 -17.4587 -17.4327 -17.4312 -17.4293 -17.4240 -17.4215
   -14.2945 -14.2879 -14.2858 -14.2824 -14.2791 -14.2778 -14.2738 -14.2721
   -14.2702 -14.2689 -14.2680 -14.2646 -14.2606 -14.2588 -14.2559 -14.2551
   -14.2503 -14.2474 -14.2464 -14.2458 -14.2458 -14.2456 -14.2451 -14.2425
   -14.2422 -14.2373 -14.2353 -14.2352 -14.2350 -14.2341 -14.2327 -14.2316
   -14.2290 -14.2274 -14.2260 -14.2254 -14.2201 -14.2170 -14.2148 -14.2071
   -10.4909 -10.4676 -10.4609 -10.4579 -10.4491 -10.4467 -10.4292 -10.4263
    -9.6254  -9.5603  -9.5296  -9.4777  -9.4460  -9.4013  -9.3905  -9.3472
    -9.2876  -9.2580  -9.2103  -9.2040  -9.1996  -9.1698  -9.1513  -9.1414
    -9.1243  -9.1154  -9.1050  -9.0787  -9.0690  -9.0462  -9.0220  -9.0040
    -6.9788  -6.9524  -6.9481  -6.9456  -6.9421  -6.9330  -6.9224  -6.9179
    -6.9058  -6.8812  -6.8216  -6.8026  -6.7963  -6.7923  -6.7880  -6.7823
    -5.6581  -5.4761  -5.4702  -5.2962  -5.2587  -5.0915  -5.0839  -4.9319
    -4.8404  -4.8254  -4.8093  -4.8039  -4.7968  -4.7890  -4.7720  -4.7552
    -2.7972  -2.7825  -2.7752  -2.7600  -2.7542  -2.7497  -2.7458  -2.7425
    -2.7361  -2.7320  -2.7262  -2.7168  -2.7048  -2.7014  -2.6981  -2.6916
    -0.8167  -0.7582  -0.7295  -0.6752  -0.5234  -0.4465  -0.4231  -0.3792
    -0.3229  -0.2983  -0.2787  -0.2642   0.0487   0.0822   0.1278   0.1440
     0.2021   0.2240   0.2917   0.3107   0.3667   0.4075   0.4266   0.4403
     0.5036   0.5526   0.6214   0.6357   0.6931   0.7251   0.7944   0.8114
     0.8568   0.8924   0.9305   0.9491   0.9676   0.9873   0.9921   1.0052
     1.0210   1.0335   1.0444   1.0531   1.0630   1.1140   1.1353   1.1749
     1.1983   1.2319   1.2509   1.2653   1.2779   1.2861   1.2952   1.3382
     1.3867   1.3934   1.4143   1.4343   1.4504   1.4595   1.4722   1.4898
     1.5070   1.5299   1.5361   1.5624   1.6040   1.6390   1.7017   1.7504

          k =-0.3744-0.1267 0.1288 (299843 PWs)   bands (ev):

   -17.5176 -17.4929 -17.4587 -17.4327 -17.4313 -17.4293 -17.4240 -17.4215
   -14.2946 -14.2895 -14.2861 -14.2829 -14.2794 -14.2784 -14.2756 -14.2718
   -14.2709 -14.2673 -14.2668 -14.2630 -14.2611 -14.2587 -14.2559 -14.2551
   -14.2500 -14.2474 -14.2464 -14.2458 -14.2458 -14.2451 -14.2443 -14.2426
   -14.2423 -14.2373 -14.2353 -14.2352 -14.2349 -14.2340 -14.2327 -14.2315
   -14.2290 -14.2274 -14.2261 -14.2254 -14.2201 -14.2170 -14.2148 -14.2071
   -10.4920 -10.4692 -10.4618 -10.4579 -10.4496 -10.4438 -10.4287 -10.4254
    -9.6485  -9.5896  -9.4913  -9.4834  -9.4186  -9.4048  -9.3334  -9.2965
    -9.2863  -9.2766  -9.2450  -9.2324  -9.2011  -9.1875  -9.1819  -9.1553
    -9.1315  -9.1166  -9.1053  -9.0925  -9.0532  -9.0261  -9.0203  -8.9867
    -6.9731  -6.9578  -6.9517  -6.9450  -6.9414  -6.9317  -6.9222  -6.9170
    -6.9075  -6.8758  -6.8266  -6.8091  -6.8039  -6.7906  -6.7808  -6.7775
    -5.7855  -5.6112  -5.3460  -5.3406  -5.1814  -5.1692  -4.9253  -4.8683
    -4.8397  -4.8151  -4.8115  -4.8068  -4.7942  -4.7797  -4.7760  -4.6816
    -2.8026  -2.7789  -2.7748  -2.7617  -2.7567  -2.7555  -2.7444  -2.7427
    -2.7355  -2.7281  -2.7171  -2.7116  -2.7077  -2.7047  -2.7017  -2.6961
    -0.8651  -0.8224  -0.8102  -0.7656  -0.7477  -0.7097  -0.6364  -0.6041
    -0.4505  -0.3828  -0.3004  -0.2301   0.0875   0.1570   0.2685   0.2816
     0.3109   0.3232   0.3480   0.3602   0.4252   0.4403   0.4571   0.5201
     0.5439   0.6112   0.6155   0.6580   0.7017   0.7833   0.8185   0.8263
     0.8727   0.8901   0.9249   0.9733   0.9827   1.0101   1.0193   1.0354
     1.0573   1.0666   1.0940   1.1030   1.1208   1.1508   1.1959   1.2032
     1.2250   1.2309   1.2427   1.2580   1.2677   1.2801   1.2857   1.3140
     1.3267   1.3478   1.3839   1.4220   1.4498   1.4748   1.5032   1.5445
     1.5611   1.5894   1.5936   1.6033   1.6361   1.6427   1.8785   1.9031

          k =-0.3744 0.1267-0.1288 (299843 PWs)   bands (ev):

   -17.5176 -17.4929 -17.4587 -17.4327 -17.4313 -17.4293 -17.4240 -17.4215
   -14.2946 -14.2895 -14.2861 -14.2828 -14.2794 -14.2784 -14.2756 -14.2718
   -14.2709 -14.2673 -14.2668 -14.2630 -14.2611 -14.2587 -14.2559 -14.2551
   -14.2500 -14.2474 -14.2464 -14.2458 -14.2458 -14.2451 -14.2443 -14.2426
   -14.2423 -14.2373 -14.2353 -14.2352 -14.2349 -14.2340 -14.2327 -14.2315
   -14.2290 -14.2274 -14.2261 -14.2254 -14.2201 -14.2170 -14.2148 -14.2071
   -10.4922 -10.4702 -10.4612 -10.4581 -10.4496 -10.4442 -10.4281 -10.4247
    -9.6605  -9.5749  -9.4887  -9.4655  -9.4345  -9.4167  -9.3308  -9.3016
    -9.2839  -9.2752  -9.2453  -9.2310  -9.2031  -9.1900  -9.1789  -9.1549
    -9.1307  -9.1128  -9.1012  -9.0929  -9.0600  -9.0267  -9.0191  -8.9854
    -6.9730  -6.9576  -6.9514  -6.9451  -6.9411  -6.9317  -6.9226  -6.9171
    -6.9078  -6.8758  -6.8267  -6.8091  -6.8043  -6.7896  -6.7814  -6.7775
    -5.7859  -5.6110  -5.3441  -5.3367  -5.1816  -5.1760  -4.9425  -4.8525
    -4.8384  -4.8203  -4.8091  -4.8047  -4.7886  -4.7784  -4.7717  -4.6902
    -2.8029  -2.7795  -2.7736  -2.7630  -2.7577  -2.7557  -2.7432  -2.7405
    -2.7356  -2.7291  -2.7203  -2.7126  -2.7068  -2.7045  -2.6999  -2.6951
    -0.8736  -0.8322  -0.8132  -0.7607  -0.7471  -0.7092  -0.6410  -0.6088
    -0.4320  -0.3615  -0.2732  -0.2160   0.0753   0.1170   0.2478   0.2675
     0.3156   0.3291   0.3545   0.3689   0.4100   0.4214   0.4409   0.5064
     0.5327   0.6158   0.6283   0.6811   0.7256   0.7817   0.8077   0.8397
     0.8623   0.9080   0.9549   0.9702   0.9890   0.9979   1.0177   1.0338
     1.0584   1.0737   1.0914   1.1088   1.1246   1.1416   1.1916   1.2056
     1.2233   1.2327   1.2418   1.2531   1.2698   1.2751   1.2831   1.3100
     1.3283   1.3522   1.3770   1.4230   1.4354   1.4747   1.4970   1.5455
     1.5671   1.5777   1.5844   1.5977   1.6186   1.6984   1.8558   1.9409

          k = 0.3744-0.1267-0.1288 (299843 PWs)   bands (ev):

   -17.5176 -17.4929 -17.4587 -17.4327 -17.4313 -17.4293 -17.4240 -17.4215
   -14.2946 -14.2895 -14.2861 -14.2829 -14.2794 -14.2784 -14.2756 -14.2718
   -14.2709 -14.2673 -14.2668 -14.2630 -14.2611 -14.2587 -14.2559 -14.2551
   -14.2500 -14.2474 -14.2464 -14.2458 -14.2458 -14.2451 -14.2443 -14.2426
   -14.2423 -14.2373 -14.2353 -14.2352 -14.2349 -14.2340 -14.2327 -14.2315
   -14.2290 -14.2274 -14.2261 -14.2254 -14.2201 -14.2170 -14.2148 -14.2071
   -10.4922 -10.4702 -10.4613 -10.4580 -10.4496 -10.4441 -10.4281 -10.4247
    -9.6602  -9.5757  -9.4894  -9.4646  -9.4347  -9.4147  -9.3338  -9.3000
    -9.2844  -9.2753  -9.2440  -9.2325  -9.2028  -9.1883  -9.1812  -9.1535
    -9.1319  -9.1126  -9.1002  -9.0934  -9.0607  -9.0264  -9.0190  -8.9854
    -6.9731  -6.9575  -6.9515  -6.9451  -6.9411  -6.9317  -6.9223  -6.9171
    -6.9082  -6.8757  -6.8267  -6.8091  -6.8043  -6.7896  -6.7813  -6.7775
    -5.7859  -5.6110  -5.3441  -5.3364  -5.1818  -5.1760  -4.9422  -4.8527
    -4.8384  -4.8203  -4.8091  -4.8048  -4.7887  -4.7784  -4.7719  -4.6900
    -2.8027  -2.7804  -2.7739  -2.7632  -2.7585  -2.7551  -2.7429  -2.7412
    -2.7348  -2.7276  -2.7206  -2.7112  -2.7079  -2.7043  -2.6998  -2.6959
    -0.8702  -0.8364  -0.8112  -0.7599  -0.7488  -0.7110  -0.6413  -0.6095
    -0.4298  -0.3604  -0.2734  -0.2162   0.0747   0.1150   0.2571   0.2643
     0.3149   0.3268   0.3543   0.3691   0.4102   0.4227   0.4455   0.5038
     0.5260   0.6127   0.6350   0.6785   0.7270   0.7815   0.8046   0.8314
     0.8607   0.9140   0.9593   0.9667   0.9970   1.0046   1.0204   1.0307
     1.0531   1.0753   1.0887   1.1099   1.1242   1.1355   1.1911   1.2070
     1.2279   1.2315   1.2389   1.2530   1.2709   1.2767   1.2844   1.3077
     1.3370   1.3492   1.3764   1.4211   1.4364   1.4721   1.4947   1.5464
     1.5648   1.5783   1.5862   1.5988   1.6184   1.6977   1.8559   1.9409

          k =-0.3744-0.1267 0.3865 (299847 PWs)   bands (ev):

   -17.5176 -17.4929 -17.4587 -17.4327 -17.4313 -17.4293 -17.4240 -17.4215
   -14.2934 -14.2883 -14.2843 -14.2834 -14.2801 -14.2798 -14.2750 -14.2728
   -14.2691 -14.2674 -14.2667 -14.2639 -14.2621 -14.2580 -14.2559 -14.2551
   -14.2509 -14.2474 -14.2464 -14.2458 -14.2458 -14.2451 -14.2450 -14.2426
   -14.2423 -14.2373 -14.2353 -14.2352 -14.2349 -14.2340 -14.2327 -14.2316
   -14.2290 -14.2274 -14.2260 -14.2254 -14.2201 -14.2170 -14.2148 -14.2071
   -10.4912 -10.4685 -10.4602 -10.4592 -10.4503 -10.4440 -10.4289 -10.4260
    -9.6140  -9.5576  -9.5515  -9.4912  -9.4546  -9.4001  -9.3852  -9.3428
    -9.2476  -9.2267  -9.2135  -9.1997  -9.1914  -9.1806  -9.1608  -9.1577
    -9.1340  -9.1302  -9.1109  -9.0813  -9.0708  -9.0407  -9.0236  -8.9986
    -6.9789  -6.9523  -6.9486  -6.9453  -6.9410  -6.9328  -6.9223  -6.9181
    -6.9051  -6.8815  -6.8217  -6.8029  -6.7968  -6.7921  -6.7871  -6.7827
    -5.6674  -5.4950  -5.4846  -5.3127  -5.2309  -5.0809  -5.0563  -4.9370
    -4.8384  -4.8155  -4.8109  -4.8035  -4.7990  -4.7872  -4.7760  -4.7531
    -2.8019  -2.7744  -2.7695  -2.7623  -2.7547  -2.7522  -2.7462  -2.7426
    -2.7365  -2.7297  -2.7198  -2.7151  -2.7090  -2.7023  -2.7009  -2.6980
    -0.7902  -0.7459  -0.7283  -0.6783  -0.5292  -0.4539  -0.4263  -0.4014
    -0.3447  -0.3056  -0.2812  -0.2676   0.0559   0.0707   0.1165   0.1518
     0.2128   0.2340   0.2492   0.3177   0.3998   0.4052   0.4226   0.4272
     0.5219   0.5644   0.6119   0.6509   0.6728   0.7136   0.7371   0.7875
     0.8067   0.8662   0.8755   0.9035   0.9197   0.9711   1.0082   1.0301
     1.0363   1.0495   1.0576   1.0737   1.1228   1.1396   1.1650   1.1686
     1.2178   1.2485   1.2564   1.2665   1.2774   1.2993   1.3134   1.3278
     1.3561   1.3763   1.3945   1.4171   1.4460   1.4725   1.4758   1.5260
     1.5371   1.5577   1.5756   1.5902   1.6278   1.6515   1.6980   1.7273

          k =-0.3744 0.1267-0.3865 (299847 PWs)   bands (ev):

   -17.5176 -17.4929 -17.4587 -17.4327 -17.4313 -17.4293 -17.4240 -17.4215
   -14.2934 -14.2883 -14.2843 -14.2833 -14.2801 -14.2798 -14.2750 -14.2728
   -14.2691 -14.2674 -14.2667 -14.2639 -14.2621 -14.2580 -14.2559 -14.2551
   -14.2509 -14.2474 -14.2464 -14.2458 -14.2458 -14.2451 -14.2450 -14.2426
   -14.2423 -14.2373 -14.2353 -14.2352 -14.2349 -14.2340 -14.2327 -14.2316
   -14.2290 -14.2274 -14.2260 -14.2254 -14.2201 -14.2170 -14.2148 -14.2071
   -10.4914 -10.4693 -10.4601 -10.4590 -10.4502 -10.4447 -10.4283 -10.4252
    -9.6246  -9.5580  -9.5417  -9.4851  -9.4410  -9.4060  -9.3880  -9.3575
    -9.2472  -9.2247  -9.2144  -9.2020  -9.1924  -9.1806  -9.1614  -9.1517
    -9.1355  -9.1233  -9.1117  -9.0854  -9.0719  -9.0435  -9.0205  -8.9968
    -6.9790  -6.9518  -6.9487  -6.9455  -6.9413  -6.9326  -6.9229  -6.9181
    -6.9052  -6.8814  -6.8217  -6.8028  -6.7971  -6.7915  -6.7872  -6.7827
    -5.6656  -5.4959  -5.4811  -5.3174  -5.2344  -5.0775  -5.0636  -4.9239
    -4.8402  -4.8213  -4.8086  -4.8020  -4.7975  -4.7892  -4.7742  -4.7554
    -2.8022  -2.7740  -2.7702  -2.7616  -2.7555  -2.7517  -2.7446  -2.7429
    -2.7365  -2.7304  -2.7214  -2.7177  -2.7083  -2.7022  -2.6999  -2.6965
    -0.8098  -0.7459  -0.7386  -0.6749  -0.5102  -0.4406  -0.4152  -0.3837
    -0.3590  -0.2988  -0.2734  -0.2549   0.0434   0.0507   0.1229   0.1411
     0.1887   0.2265   0.2520   0.2968   0.3973   0.4042   0.4274   0.4386
     0.5084   0.5799   0.6290   0.6520   0.6754   0.7048   0.7273   0.7778
     0.8085   0.8577   0.8831   0.9319   0.9439   0.9759   0.9948   1.0134
     1.0280   1.0416   1.0577   1.0801   1.1010   1.1496   1.1633   1.1927
     1.2150   1.2469   1.2619   1.2692   1.2783   1.2921   1.3131   1.3599
     1.3625   1.3712   1.3818   1.4141   1.4560   1.4793   1.4887   1.5135
     1.5218   1.5357   1.5599   1.5745   1.5958   1.6743   1.7138   1.7724

          k = 0.3744-0.1267-0.3865 (299847 PWs)   bands (ev):

   -17.5176 -17.4929 -17.4587 -17.4327 -17.4313 -17.4293 -17.4240 -17.4215
   -14.2934 -14.2883 -14.2843 -14.2834 -14.2801 -14.2798 -14.2750 -14.2728
   -14.2691 -14.2674 -14.2667 -14.2639 -14.2621 -14.2580 -14.2559 -14.2551
   -14.2509 -14.2474 -14.2464 -14.2458 -14.2458 -14.2451 -14.2450 -14.2426
   -14.2423 -14.2373 -14.2353 -14.2352 -14.2349 -14.2340 -14.2327 -14.2316
   -14.2290 -14.2274 -14.2260 -14.2254 -14.2201 -14.2170 -14.2148 -14.2071
   -10.4914 -10.4693 -10.4602 -10.4590 -10.4502 -10.4447 -10.4283 -10.4252
    -9.6238  -9.5596  -9.5433  -9.4826  -9.4381  -9.4071  -9.3911  -9.3564
    -9.2474  -9.2249  -9.2146  -9.2008  -9.1932  -9.1811  -9.1595  -9.1524
    -9.1354  -9.1257  -9.1084  -9.0875  -9.0722  -9.0426  -9.0207  -8.9968
    -6.9790  -6.9517  -6.9487  -6.9455  -6.9414  -6.9326  -6.9225  -6.9181
    -6.9057  -6.8812  -6.8217  -6.8029  -6.7969  -6.7917  -6.7872  -6.7826
    -5.6658  -5.4965  -5.4804  -5.3175  -5.2340  -5.0776  -5.0638  -4.9240
    -4.8402  -4.8213  -4.8087  -4.8023  -4.7977  -4.7888  -4.7743  -4.7552
    -2.8021  -2.7742  -2.7718  -2.7606  -2.7567  -2.7516  -2.7450  -2.7427
    -2.7365  -2.7272  -2.7213  -2.7181  -2.7086  -2.7017  -2.6995  -2.6979
    -0.8094  -0.7459  -0.7360  -0.6753  -0.5196  -0.4433  -0.4166  -0.3859
    -0.3490  -0.2981  -0.2670  -0.2550   0.0400   0.0550   0.1167   0.1433
     0.1857   0.2253   0.2533   0.3001   0.3970   0.4042   0.4261   0.4394
     0.5132   0.5754   0.6280   0.6407   0.6766   0.7062   0.7338   0.7784
     0.8073   0.8584   0.8869   0.9279   0.9464   0.9762   0.9954   1.0121
     1.0266   1.0478   1.0583   1.0827   1.0924   1.1493   1.1656   1.1961
     1.2129   1.2494   1.2590   1.2696   1.2761   1.2919   1.3159   1.3527
     1.3657   1.3706   1.3868   1.4109   1.4579   1.4770   1.4899   1.5137
     1.5191   1.5337   1.5648   1.5720   1.5966   1.6751   1.7135   1.7723

          k =-0.3744-0.3802 0.1288 (299754 PWs)   bands (ev):

   -17.5176 -17.4929 -17.4587 -17.4327 -17.4313 -17.4293 -17.4240 -17.4215
   -14.2945 -14.2888 -14.2861 -14.2824 -14.2791 -14.2775 -14.2748 -14.2720
   -14.2702 -14.2680 -14.2678 -14.2631 -14.2614 -14.2597 -14.2558 -14.2551
   -14.2501 -14.2474 -14.2464 -14.2458 -14.2458 -14.2451 -14.2448 -14.2425
   -14.2422 -14.2373 -14.2353 -14.2352 -14.2349 -14.2340 -14.2327 -14.2315
   -14.2290 -14.2274 -14.2261 -14.2254 -14.2201 -14.2170 -14.2148 -14.2071
   -10.4913 -10.4697 -10.4589 -10.4574 -10.4497 -10.4462 -10.4293 -10.4262
    -9.6077  -9.5700  -9.5491  -9.4597  -9.4536  -9.4008  -9.3827  -9.3311
    -9.2862  -9.2760  -9.2474  -9.2374  -9.1882  -9.1483  -9.1415  -9.1243
    -9.1175  -9.1098  -9.0949  -9.0857  -9.0588  -9.0442  -9.0384  -9.0106
    -6.9728  -6.9579  -6.9517  -6.9448  -6.9417  -6.9318  -6.9225  -6.9168
    -6.9065  -6.8754  -6.8260  -6.8091  -6.8034  -6.7912  -6.7824  -6.7776
    -5.6685  -5.5047  -5.4758  -5.3184  -5.2409  -5.0687  -5.0412  -4.9474
    -4.8413  -4.8211  -4.8094  -4.8039  -4.7985  -4.7833  -4.7734  -4.7446
    -2.7956  -2.7796  -2.7699  -2.7598  -2.7519  -2.7500  -2.7462  -2.7431
    -2.7385  -2.7341  -2.7232  -2.7186  -2.7072  -2.7048  -2.6999  -2.6952
    -0.8345  -0.7949  -0.7588  -0.7078  -0.5010  -0.4737  -0.4494  -0.3417
    -0.3289  -0.3046  -0.2750  -0.2339   0.0644   0.1319   0.1481   0.2153
     0.2787   0.2968   0.3171   0.3245   0.3470   0.3728   0.3926   0.4392
[...]
   -14.2921 -14.2862 -14.2830 -14.2818 -14.2789 -14.2772 -14.2731 -14.2708
   -14.2692 -14.2683 -14.2676 -14.2644 -14.2622 -14.2588 -14.2547 -14.2539
   -14.2517 -14.2463 -14.2459 -14.2451 -14.2445 -14.2443 -14.2443 -14.2416
   -14.2411 -14.2360 -14.2357 -14.2350 -14.2344 -14.2331 -14.2328 -14.2315
   -14.2290 -14.2276 -14.2263 -14.2253 -14.2201 -14.2180 -14.2156 -14.2079
   -10.4820 -10.4630 -10.4533 -10.4474 -10.4421 -10.4405 -10.4219 -10.4181
    -9.5944  -9.5299  -9.5057  -9.4931  -9.4593  -9.4529  -9.4378  -9.4024
    -9.2447  -9.2156  -9.1977  -9.1876  -9.1779  -9.1538  -9.1464  -9.1342
    -9.1219  -9.0975  -9.0951  -9.0894  -9.0741  -9.0632  -9.0370  -9.0139
    -6.9745  -6.9504  -6.9456  -6.9436  -6.9393  -6.9274  -6.9176  -6.9138
    -6.9024  -6.8775  -6.8096  -6.7999  -6.7931  -6.7891  -6.7829  -6.7792
    -5.5483  -5.3875  -5.3724  -5.3644  -5.2171  -5.2077  -5.1990  -5.0354
    -4.8327  -4.8173  -4.7995  -4.7943  -4.7923  -4.7876  -4.7647  -4.7604
    -2.7892  -2.7751  -2.7692  -2.7519  -2.7467  -2.7447  -2.7419  -2.7389
    -2.7312  -2.7262  -2.7199  -2.7098  -2.7038  -2.6961  -2.6930  -2.6896
    -0.6168  -0.5397  -0.4825  -0.4520  -0.4215  -0.3704  -0.3419  -0.3266
    -0.2863  -0.2702  -0.2063  -0.1757  -0.0041   0.0211   0.0622   0.0821
     0.1194   0.2064   0.2137   0.2264   0.3054   0.3294   0.3420   0.3534
     0.5546   0.6161   0.6318   0.6692   0.6807   0.7070   0.7358   0.7451
     0.7706   0.8078   0.8372   0.8473   0.8842   0.8995   0.9014   0.9240
     0.9570   0.9708   0.9918   1.0033   1.0253   1.0450   1.0912   1.1187
     1.2363   1.2664   1.2791   1.2905   1.2987   1.3116   1.3321   1.3761
     1.4010   1.4166   1.4266   1.4368   1.4501   1.4612   1.4647   1.4757
     1.5006   1.5166   1.5277   1.5336   1.5441   1.5681   1.6412   1.6618

          k = 0.3742-0.3802-0.3868 (299819 PWs)   bands (ev):

   -17.5120 -17.4851 -17.4459 -17.4282 -17.4267 -17.4257 -17.4220 -17.4153
   -14.2921 -14.2862 -14.2830 -14.2818 -14.2789 -14.2772 -14.2731 -14.2708
   -14.2692 -14.2683 -14.2676 -14.2644 -14.2622 -14.2588 -14.2547 -14.2539
   -14.2517 -14.2463 -14.2459 -14.2451 -14.2445 -14.2443 -14.2443 -14.2416
   -14.2411 -14.2360 -14.2357 -14.2350 -14.2344 -14.2331 -14.2328 -14.2315
   -14.2290 -14.2276 -14.2263 -14.2253 -14.2201 -14.2180 -14.2156 -14.2079
   -10.4820 -10.4630 -10.4533 -10.4475 -10.4422 -10.4403 -10.4219 -10.4181
    -9.5947  -9.5301  -9.5069  -9.4899  -9.4602  -9.4506  -9.4420  -9.4010
    -9.2451  -9.2154  -9.1985  -9.1895  -9.1755  -9.1545  -9.1453  -9.1303
    -9.1247  -9.1013  -9.0950  -9.0878  -9.0759  -9.0601  -9.0375  -9.0140
    -6.9745  -6.9503  -6.9458  -6.9432  -6.9397  -6.9274  -6.9169  -6.9137
    -6.9034  -6.8773  -6.8096  -6.8000  -6.7930  -6.7890  -6.7831  -6.7790
    -5.5485  -5.3882  -5.3718  -5.3637  -5.2176  -5.2068  -5.1999  -5.0350
    -4.8328  -4.8173  -4.7996  -4.7943  -4.7926  -4.7872  -4.7651  -4.7602
    -2.7895  -2.7755  -2.7691  -2.7517  -2.7476  -2.7442  -2.7412  -2.7392
    -2.7314  -2.7267  -2.7203  -2.7085  -2.7027  -2.6965  -2.6929  -2.6903
    -0.6117  -0.5440  -0.4801  -0.4589  -0.4252  -0.3678  -0.3357  -0.3234
    -0.2892  -0.2760  -0.2041  -0.1775   0.0028   0.0281   0.0597   0.0793
     0.1198   0.2021   0.2178   0.2248   0.3082   0.3276   0.3371   0.3527
     0.5560   0.6126   0.6344   0.6693   0.6831   0.7040   0.7350   0.7442
     0.7683   0.8039   0.8393   0.8518   0.8841   0.8981   0.9120   0.9218
     0.9537   0.9698   0.9892   1.0057   1.0268   1.0455   1.0900   1.1194
     1.2355   1.2674   1.2795   1.2895   1.2987   1.3080   1.3375   1.3741
     1.4014   1.4163   1.4270   1.4352   1.4501   1.4561   1.4616   1.4805
     1.5021   1.5192   1.5282   1.5346   1.5429   1.5687   1.6402   1.6618

     highest occupied level (ev):     2.0719

!    total energy              =  -16491.15702490 Ry
     Harris-Foulkes estimate   =  -16491.15702490 Ry
     estimated scf accuracy    <          4.7E-10 Ry

     total all-electron energy =   -677247.826289 Ry

     The total energy is the sum of the following terms:

     one-electron contribution =    -826.76621049 Ry
     hartree contribution      =     599.31483280 Ry
     xc contribution           =    -755.73638696 Ry
     ewald contribution        =   -1153.13973721 Ry
     DFT-D3 Dispersion         =      -0.62597896 Ry
     one-center paw contrib.   =  -14354.20354407 Ry

     convergence has been achieved in   8 iterations

     Forces acting on atoms (cartesian axes, Ry/au):

     atom    1 type  1   force =    -0.00002641    0.00001896    0.00001066
     atom    2 type  1   force =     0.00004505    0.00001315   -0.00005030
     atom    3 type  1   force =     0.00005843   -0.00001909   -0.00002977
     atom    4 type  1   force =    -0.00000643   -0.00004215   -0.00003904
     atom    5 type  1   force =     0.00001852   -0.00001847   -0.00004804
     atom    6 type  1   force =     0.00001621    0.00003171   -0.00003528
     atom    7 type  1   force =    -0.00003112    0.00003389   -0.00003007
     atom    8 type  1   force =     0.00002582    0.00003287   -0.00009217
     atom    9 type  2   force =    -0.00005528   -0.00000544    0.00003114
     atom   10 type  2   force =     0.00005344   -0.00002458   -0.00006787
     atom   11 type  2   force =     0.00002012   -0.00000916    0.00000089
     atom   12 type  2   force =    -0.00007385   -0.00000740   -0.00008012
     atom   13 type  2   force =     0.00004216   -0.00003359    0.00003092
     atom   14 type  2   force =     0.00007025   -0.00001849    0.00001728
     atom   15 type  2   force =    -0.00006999   -0.00001706   -0.00010175
     atom   16 type  2   force =     0.00007055   -0.00001788    0.00002439
     atom   17 type  2   force =     0.00004421   -0.00004933    0.00003630
     atom   18 type  2   force =    -0.00003321    0.00008218    0.00004872
     atom   19 type  2   force =    -0.00002039   -0.00006485   -0.00002152
     atom   20 type  2   force =    -0.00005058    0.00005039    0.00002707
     atom   21 type  2   force =    -0.00010542   -0.00000868   -0.00005905
     atom   22 type  2   force =     0.00005876   -0.00005256    0.00000149
     atom   23 type  2   force =     0.00000115   -0.00001006    0.00006290
     atom   24 type  2   force =    -0.00005110    0.00005762    0.00005387
     atom   25 type  2   force =     0.00000848   -0.00007297   -0.00005075
     atom   26 type  2   force =    -0.00004455    0.00000013    0.00003068
     atom   27 type  2   force =     0.00001080    0.00007571    0.00005623
     atom   28 type  2   force =    -0.00000288   -0.00004149    0.00000731
     atom   29 type  2   force =    -0.00005999   -0.00002384    0.00009702
     atom   30 type  2   force =    -0.00006551    0.00001586   -0.00011524
     atom   31 type  2   force =     0.00002318   -0.00002609   -0.00002346
     atom   32 type  2   force =     0.00003194   -0.00006296    0.00009814
     atom   33 type  3   force =     0.00011174    0.00012755   -0.00002088
     atom   34 type  3   force =     0.00000088   -0.00000003    0.00006589
     atom   35 type  3   force =    -0.00000505    0.00026874   -0.00001235
     atom   36 type  3   force =    -0.00000448    0.00005629    0.00005597
     atom   37 type  3   force =     0.00005323    0.00010632   -0.00000804
     atom   38 type  3   force =     0.00012704    0.00007918    0.00000371
     atom   39 type  3   force =     0.00010183   -0.00003900   -0.00009755
     atom   40 type  3   force =    -0.00002915   -0.00001626   -0.00009364
     atom   41 type  4   force =    -0.00006267    0.00008671    0.00011334
     atom   42 type  4   force =     0.00007538   -0.00014036   -0.00006811
     atom   43 type  4   force =     0.00007512    0.00019685   -0.00008316
     atom   44 type  4   force =     0.00015782    0.00000154   -0.00000085
     atom   45 type  4   force =     0.00011377   -0.00003432   -0.00004423
     atom   46 type  4   force =    -0.00010216    0.00007499   -0.00004038
     atom   47 type  4   force =    -0.00006814    0.00002421    0.00011398
     atom   48 type  4   force =     0.00018303    0.00002220   -0.00000748
     atom   49 type  5   force =    -0.00010038   -0.00018906    0.00010661
     atom   50 type  5   force =    -0.00002216   -0.00019899   -0.00014099
     atom   51 type  5   force =    -0.00008877   -0.00011395   -0.00010798
     atom   52 type  5   force =     0.00007064    0.00007012    0.00002196
     atom   53 type  5   force =     0.00014978    0.00003420    0.00011352
     atom   54 type  5   force =    -0.00013865    0.00006905   -0.00004682
     atom   55 type  5   force =     0.00002211    0.00005516   -0.00008880
     atom   56 type  5   force =    -0.00003025   -0.00001412    0.00002800
     atom   57 type  5   force =    -0.00002366    0.00005362    0.00011529
     atom   58 type  5   force =     0.00005242    0.00013425    0.00013675
     atom   59 type  5   force =     0.00008954    0.00001662    0.00003528
     atom   60 type  5   force =    -0.00003445    0.00006996   -0.00009527
     atom   61 type  5   force =     0.00004214   -0.00011045    0.00034591
     atom   62 type  5   force =     0.00001458   -0.00021907    0.00018880
     atom   63 type  5   force =    -0.00019163   -0.00019661   -0.00032025
     atom   64 type  5   force =     0.00027186    0.00012007   -0.00021968
     atom   65 type  5   force =    -0.00015548    0.00009396   -0.00000447
     atom   66 type  5   force =     0.00003677   -0.00001888    0.00014009
     atom   67 type  5   force =    -0.00020057   -0.00002436    0.00010090
     atom   68 type  5   force =     0.00003525   -0.00016566   -0.00004441
     atom   69 type  5   force =    -0.00009122    0.00004471   -0.00004664
     atom   70 type  5   force =     0.00014396   -0.00006603    0.00005762
     atom   71 type  5   force =     0.00006735    0.00017615   -0.00017325
     atom   72 type  5   force =    -0.00010212   -0.00005974    0.00005945
     atom   73 type  5   force =    -0.00000059    0.00000597    0.00003687
     atom   74 type  5   force =    -0.00002898   -0.00008634   -0.00003505
     atom   75 type  5   force =    -0.00001734    0.00007503   -0.00002275
     atom   76 type  5   force =    -0.00004802    0.00004282   -0.00006846
     atom   77 type  5   force =     0.00002438   -0.00007210   -0.00000260
     atom   78 type  5   force =    -0.00005444    0.00001074    0.00005904
     atom   79 type  5   force =    -0.00007186   -0.00016920    0.00016730
     atom   80 type  5   force =    -0.00006973   -0.00018232   -0.00012119
     atom   81 type  5   force =     0.00004457   -0.00016647    0.00001652
     atom   82 type  5   force =     0.00004694    0.00019980   -0.00013046
     atom   83 type  5   force =    -0.00000862    0.00000829    0.00013437
     atom   84 type  5   force =    -0.00007104    0.00005365   -0.00002049
     atom   85 type  5   force =    -0.00017237   -0.00009603    0.00011637
     atom   86 type  5   force =    -0.00000084   -0.00019646   -0.00014377
     atom   87 type  5   force =    -0.00000507   -0.00011648    0.00001775
     atom   88 type  5   force =     0.00000379    0.00024790   -0.00000911
     atom   89 type  5   force =    -0.00007319    0.00001856    0.00010579
     atom   90 type  5   force =     0.00008680    0.00005417   -0.00004329
     atom   91 type  5   force =    -0.00012746    0.00009781   -0.00000912
     atom   92 type  5   force =     0.00005054   -0.00020666    0.00000046
     atom   93 type  5   force =    -0.00007155    0.00024285   -0.00013605
     atom   94 type  5   force =    -0.00004779   -0.00003378    0.00011641
     atom   95 type  5   force =     0.00003694    0.00022186    0.00021205
     atom   96 type  5   force =     0.00012727   -0.00011548   -0.00006902

     Total force =     0.001584     Total SCF correction =     0.000095


     Computing stress (Cartesian axis) and pressure

          total   stress  (Ry/bohr**3)                   (kbar)     P=    0.03
   0.00000027   0.00000633   0.00000146          0.04      0.93      0.21
   0.00000633   0.00000021  -0.00000074          0.93      0.03     -0.11
   0.00000146  -0.00000074   0.00000019          0.21     -0.11      0.03


     number of scf cycles    =  24
     number of bfgs steps    =  23

     enthalpy old            =  -16491.1570204741 Ry
     enthalpy new            =  -16491.1570248959 Ry

     CASE: enthalpy_new < enthalpy_old

     new trust radius        =       0.0041393905 bohr
     new conv_thr            =       0.0000000010 Ry

     new unit-cell volume =  13500.47554 a.u.^3 (  2000.56405 Ang^3 )
     density =      4.12184 g/cm^3

CELL_PARAMETERS (alat= 24.15259000)
   1.002064641   0.000000000   0.000000000
   0.000000000   0.986293909   0.000000000
   0.000000000   0.000000000   0.969517940

ATOMIC_POSITIONS (crystal)
Pb       0.002327564   0.002211137  -0.000743245
Pb       0.000177254   0.003599908   0.500130922
Pb       0.003776654   0.504481614  -0.000184668
Pb       0.001461411   0.505497295   0.502343575
Pb       0.502462567   0.001934582   0.001546238
Pb       0.500966747   0.002702489   0.501386705
Pb       0.506392795   0.503263081   0.003340523
Pb       0.505162124   0.503674997   0.502729764
I        0.252910039   0.016253681  -0.033805536
I        0.028200620   0.253026578   0.042353880
I        0.041318488  -0.047003832   0.249356527
I        0.251397920   0.024725043   0.532299492
I        0.021308824   0.255344787   0.456223435
I       -0.041832862   0.052875025   0.749676373
I        0.255333830   0.532982430   0.028508593
I        0.014022179   0.752890091  -0.052881386
I       -0.033231235   0.549838234   0.250719308
I        0.253720145   0.531069057   0.478275248
I        0.017724444   0.755461845   0.545552963
I        0.034551280   0.446523211   0.750884440
I        0.752816576   0.027369825   0.033415255
I        0.515802736   0.252274931  -0.041031102
I        0.460597919   0.051904792   0.251179727
I        0.751231761   0.024782022   0.466167104
I        0.519065482   0.252719305   0.544904778
I        0.534588137  -0.049816771   0.751273256
I        0.755296649   0.517925872  -0.031371955
I        0.530495294   0.752478447   0.046434766
I        0.540377893   0.452851009   0.252989652
I        0.753908948   0.523112978   0.535114164
I        0.525223639   0.752899332   0.456989185
I        0.471476484   0.545987261   0.753131169
C        0.278307223   0.292826891   0.252382816
C        0.284766693   0.290536418   0.750966600
C        0.290256745   0.791834798   0.250317418
C        0.270460360   0.776610802   0.741472225
C        0.788763280   0.291056777   0.247741528
C        0.774013354   0.287359155   0.749363794
C        0.786727164   0.787712272   0.250364364
C        0.783648683   0.796838578   0.746784179
N        0.214110355   0.194100718   0.252517645
N        0.200558502   0.208696766   0.752503463
N        0.201724453   0.714831995   0.253473567
N        0.215612320   0.672456307   0.750847981
N        0.700515050   0.213762264   0.250575303
N        0.707980235   0.189938322   0.752794542
N        0.719133948   0.691350116   0.253533096
N        0.702139154   0.712464597   0.753560112
H        0.166070423   0.191306461   0.184705008
H        0.165085773   0.192082526   0.319561605
H        0.261813539   0.127563828   0.253344881
H        0.327654704   0.293148573   0.180352472
H        0.327056290   0.293720693   0.324841490
H        0.225996113   0.361417353   0.251854921
H        0.204839633   0.159663269   0.684822058
H        0.127476576   0.243967523   0.753828476
H        0.207020461   0.159376035   0.819745956
H        0.275149809   0.339685279   0.678864531
H        0.360544709   0.250659339   0.749320786
H        0.277982119   0.339462560   0.823552655
H        0.203354568   0.664650551   0.186689235
H        0.130865998   0.754817893   0.253937767
H        0.205424733   0.667009157   0.321924007
H        0.282884838   0.840275990   0.177466015
H        0.363891546   0.747966100   0.249278408
H        0.286080259   0.842417192   0.321905824
H        0.217775949   0.630820608   0.678595099
H        0.138124236   0.683182399   0.772432303
H        0.249358192   0.624999211   0.809554019
H        0.232769446   0.822881015   0.677733331
H        0.352343704   0.761877017   0.721480027
H        0.264448826   0.818331408   0.818675253
H        0.702036075   0.164163803   0.183247298
H        0.629424439   0.253135762   0.252193419
H        0.705118194   0.164693300   0.318198385
H        0.781079408   0.340265588   0.175431303
H        0.862469360   0.247342985   0.245752109
H        0.785089341   0.340762272   0.320001584
H        0.658729843   0.186849491   0.686031897
H        0.660261280   0.189935888   0.820822025
H        0.754399839   0.122559151   0.753857664
H        0.822122769   0.285064281   0.676492931
H        0.823937872   0.288876067   0.820915981
H        0.723033824   0.356939201   0.748183520
H        0.669893766   0.689127342   0.186651826
H        0.671169104   0.691979023   0.321405789
H        0.764489892   0.623252136   0.254556317
H        0.834563810   0.784909939   0.177307267
H        0.836927569   0.787976534   0.321766147
H        0.736899158   0.858161406   0.249682024
H        0.705712720   0.661785079   0.687216516
H        0.628166108   0.745624417   0.756215068
H        0.711661763   0.665148371   0.821819297
H        0.770024978   0.843679188   0.673794040
H        0.860498975   0.759326052   0.743412978
H        0.777613651   0.847529708   0.818153691



     Writing output data file MAPbI_vcrelax_PAW12.save/
     NEW-OLD atomic charge density approx. for the potential
     extrapolated charge  399.98791, renormalised to  400.00000

     total cpu time spent up to now is   586919.1 secs

     Self-consistent Calculation

     iteration #  1     ecut=   120.00 Ry     beta= 0.70
     Davidson diagonalization with overlap
     ethr =  1.00E-06,  avg # of iterations =  3.0

     Threshold (ethr) on eigenvalues was too large:
     Diagonalizing with lowered threshold

     Davidson diagonalization with overlap
     ethr =  6.79E-09,  avg # of iterations =  3.0

     total cpu time spent up to now is   593070.5 secs

     total energy              =  -16491.15701832 Ry
     Harris-Foulkes estimate   =  -16491.17510427 Ry
     estimated scf accuracy    <       0.00002833 Ry

     iteration #  2     ecut=   120.00 Ry     beta= 0.70
     Davidson diagonalization with overlap
     ethr =  7.08E-09,  avg # of iterations =  2.0

     total cpu time spent up to now is   595508.1 secs

     total energy              =  -16491.15702648 Ry
     Harris-Foulkes estimate   =  -16491.15702569 Ry
     estimated scf accuracy    <       0.00000481 Ry

     iteration #  3     ecut=   120.00 Ry     beta= 0.70
     Davidson diagonalization with overlap
     ethr =  1.20E-09,  avg # of iterations =  2.8

     total cpu time spent up to now is   598095.0 secs

     total energy              =  -16491.15702789 Ry
     Harris-Foulkes estimate   =  -16491.15702740 Ry
     estimated scf accuracy    <       0.00000175 Ry

     iteration #  4     ecut=   120.00 Ry     beta= 0.70
     Davidson diagonalization with overlap
     ethr =  4.37E-10,  avg # of iterations =  2.0

     total cpu time spent up to now is   600374.9 secs

     total energy              =  -16491.15702833 Ry
     Harris-Foulkes estimate   =  -16491.15702803 Ry
     estimated scf accuracy    <       0.00000081 Ry

     iteration #  5     ecut=   120.00 Ry     beta= 0.70
     Davidson diagonalization with overlap
     ethr =  2.01E-10,  avg # of iterations =  2.0

     total cpu time spent up to now is   602849.8 secs

     total energy              =  -16491.15702838 Ry
     Harris-Foulkes estimate   =  -16491.15702841 Ry
     estimated scf accuracy    <       0.00000006 Ry

     iteration #  6     ecut=   120.00 Ry     beta= 0.70
     Davidson diagonalization with overlap
