
     Program PWSCF v.6.4 starts on  7Mar2020 at 19:25:45 

     This program is part of the open-source Quantum ESPRESSO suite
     for quantum simulation of materials; please cite
         "P. Giannozzi et al., J. Phys.:Condens. Matter 21 395502 (2009);
         "P. Giannozzi et al., J. Phys.:Condens. Matter 29 465901 (2017);
          URL http://www.quantum-espresso.org", 
     in publications or presentations arising from this work. More details at
     http://www.quantum-espresso.org/quote

     Parallel version (MPI), running on    32 processors

     MPI processes distributed on     1 nodes
     K-points division:     npool     =       4
     R & G space division:  proc/nbgrp/npool/nimage =       8
     Waiting for input...
     Reading input from standard input
     Message from routine read_cards :
     DEPRECATED: no units specified in CELL_PARAMETERS card

     Current dimensions of program PWSCF are:
     Max number of different atomic species (ntypx) = 10
     Max number of k-points (npk) =  40000
     Max angular momentum in pseudopotentials (lmaxx) =  3
               file Pb.pbe-dn-kjpaw_psl.1.0.0.UPF: wavefunction(s)  6S 6P 5D renormalized
               file I.pbe-n-kjpaw_psl.1.0.0.UPF: wavefunction(s)  5S renormalized
               file C.pbe-n-kjpaw_psl.1.0.0.UPF: wavefunction(s)  2S 2P renormalized
               file N.pbe-n-kjpaw_psl.1.0.0.UPF: wavefunction(s)  2S renormalized
               file H.pbe-kjpaw_psl.1.0.0.UPF: wavefunction(s)  1S renormalized

     --------------------------------------------
     Parameters for DFT-D3 Dispersion Correction:
     --------------------------------------------
       Reference C6 values for interpolation: 

         atom   Coordination number   C6
         H          0.912             6.05
         H          0.000            15.18
         C          0.000            98.23
         C          0.987            86.49
         C          1.998            58.72
         C          2.999            51.56
         C          3.984            36.41
         N          0.000            50.54
         N          0.994            44.25
         N          2.014            39.35
         N          2.990            31.16
         I          0.000           703.93
         I          0.997           717.00
         Pb         0.000          1477.63
         Pb         0.938          1266.00
         Pb         1.936          1088.91
         Pb         2.908          1048.37
         Pb         3.910           910.57

       Values used:

         atom   Coordination number  R0_AB[au]  C6      C8
         Pb         4.784            4.041    910.57 144158.45
         Pb         4.809            4.041    910.57 144158.39
         Pb         4.849            4.041    910.57 144158.32
         Pb         4.848            4.041    910.57 144158.32
         Pb         4.834            4.041    910.57 144158.34
         Pb         4.860            4.041    910.57 144158.30
         Pb         4.892            4.041    910.57 144158.26
         Pb         4.909            4.041    910.57 144158.24
         I          1.959            3.532    717.00  65856.00
         I          1.949            3.532    717.00  65855.99
         I          1.922            3.532    717.00  65855.99
         I          1.970            3.532    717.00  65856.00
         I          1.946            3.532    717.00  65855.99
         I          1.938            3.532    717.00  65855.99
         I          1.936            3.532    717.00  65855.99
         I          1.931            3.532    717.00  65855.99
         I          1.933            3.532    717.00  65855.99
         I          1.966            3.532    717.00  65856.00
         I          1.955            3.532    717.00  65856.00
         I          1.991            3.532    717.00  65856.00
         I          1.949            3.532    717.00  65855.99
         I          2.002            3.532    717.00  65856.00
         I          1.960            3.532    717.00  65856.00
         I          1.966            3.532    717.00  65856.00
         I          2.014            3.532    717.00  65856.00
         I          1.944            3.532    717.00  65855.99
         I          2.004            3.532    717.00  65856.00
         I          1.995            3.532    717.00  65856.00
         I          1.976            3.532    717.00  65856.00
         I          1.998            3.532    717.00  65856.00
         I          2.010            3.532    717.00  65856.00
         I          2.025            3.532    717.00  65856.00
         C          4.035            2.750     36.59   1058.37
         C          4.038            2.750     36.59   1058.25
         C          4.039            2.750     36.59   1058.23
         C          4.034            2.750     36.60   1058.44
         C          4.036            2.750     36.59   1058.32
         C          4.043            2.750     36.58   1058.05
         C          4.040            2.750     36.59   1058.20
         C          4.045            2.750     36.58   1058.00
         N          4.059            2.478     31.16    687.49
         N          4.056            2.478     31.16    687.49
         N          4.055            2.478     31.16    687.49
         N          4.059            2.478     31.16    687.49
         N          4.059            2.478     31.16    687.49
         N          4.056            2.478     31.16    687.49
         N          4.058            2.478     31.16    687.49
         N          4.058            2.478     31.16    687.49
         H          1.096            2.062      6.12     73.95
         H          1.096            2.062      6.12     73.95
         H          1.027            2.062      6.16     74.45
         H          1.008            2.062      6.17     74.63
         H          1.007            2.062      6.17     74.64
         H          1.006            2.062      6.18     74.66
         H          1.090            2.062      6.12     73.98
         H          1.023            2.062      6.16     74.49
         H          1.080            2.062      6.12     74.04
         H          1.008            2.062      6.17     74.63
         H          1.011            2.062      6.17     74.61
         H          1.008            2.062      6.17     74.64
         H          1.084            2.062      6.12     74.02
         H          1.024            2.062      6.16     74.48
         H          1.087            2.062      6.12     74.00
         H          1.009            2.062      6.17     74.62
         H          1.008            2.062      6.17     74.63
         H          1.008            2.062      6.17     74.63
         H          1.030            2.062      6.16     74.42
         H          1.034            2.062      6.15     74.38
         H          1.036            2.062      6.15     74.37
         H          1.013            2.062      6.17     74.58
         H          1.014            2.062      6.17     74.57
         H          1.014            2.062      6.17     74.57
         H          1.092            2.062      6.12     73.97
         H          1.028            2.062      6.16     74.44
         H          1.094            2.062      6.12     73.96
         H          1.009            2.062      6.17     74.63
         H          1.007            2.062      6.17     74.64
         H          1.008            2.062      6.17     74.64
         H          1.092            2.062      6.12     73.97
         H          1.079            2.062      6.13     74.05
         H          1.022            2.062      6.16     74.50
         H          1.008            2.062      6.17     74.63
         H          1.009            2.062      6.17     74.63
         H          1.011            2.062      6.17     74.61
         H          1.103            2.062      6.11     73.91
         H          1.098            2.062      6.12     73.94
         H          1.022            2.062      6.16     74.50
         H          1.008            2.062      6.17     74.63
         H          1.008            2.062      6.17     74.63
         H          1.008            2.062      6.17     74.63
         H          1.075            2.062      6.13     74.07
         H          1.023            2.062      6.16     74.49
         H          1.073            2.062      6.13     74.09
         H          1.009            2.062      6.17     74.63
         H          1.014            2.062      6.17     74.57
         H          1.009            2.062      6.17     74.63

         Molecular C6 ( Ry / a.u.^6 ) =   1196388.57


     Subspace diagonalization in iterative solution of the eigenvalue problem:
     a serial algorithm will be used


     Parallelization info
     --------------------
     sticks:   dense  smooth     PW     G-vecs:    dense   smooth      PW
     Min        2760    2760    711               301326   301326   39467
     Max        2761    2761    712               301329   301329   39470
     Sum       22083   22083   5693              2410621  2410621  315743



     bravais-lattice index     =            0
     lattice parameter (alat)  =      24.1526  a.u.
     unit-cell volume          =   13575.3387 (a.u.)^3
     number of atoms/cell      =           96
     number of atomic types    =            5
     number of electrons       =       400.00
     number of Kohn-Sham states=          200
     kinetic-energy cutoff     =     120.0000  Ry
     charge density cutoff     =     480.0000  Ry
     convergence threshold     =      1.0E-07
     mixing beta               =       0.7000
     number of iterations used =            8  plain     mixing
     Exchange-correlation      = SLA PW PBX PBC ( 1  4  3  4 0 0)
     nstep                     =          150


     celldm(1)=  24.152590  celldm(2)=   0.000000  celldm(3)=   0.000000
     celldm(4)=   0.000000  celldm(5)=   0.000000  celldm(6)=   0.000000

     crystal axes: (cart. coord. in units of alat)
               a(1) = (   0.999076   0.000000   0.000000 )  
               a(2) = (   0.000000   0.992014   0.000000 )  
               a(3) = (   0.000000   0.000000   0.972172 )  

     reciprocal axes: (cart. coord. in units 2 pi/alat)
               b(1) = (  1.000925  0.000000  0.000000 )  
               b(2) = (  0.000000  1.008050  0.000000 )  
               b(3) = (  0.000000  0.000000  1.028624 )  


     PseudoPot. # 1 for Pb read from file:
     ../Pseudopotential/Pb.pbe-dn-kjpaw_psl.1.0.0.UPF
     MD5 check sum: 684fc8fbce61a260853528575e4d9ab7
     Pseudo is Projector augmented-wave + core cor, Zval = 14.0
     Generated using "atomic" code by A. Dal Corso v.6.3
     Shape of augmentation charge: PSQ
     Using radial grid of 1281 points,  6 beta functions with: 
                l(1) =   0
                l(2) =   0
                l(3) =   1
                l(4) =   1
                l(5) =   2
                l(6) =   2
     Q(r) pseudized with 0 coefficients 


     PseudoPot. # 2 for I  read from file:
     ../Pseudopotential/I.pbe-n-kjpaw_psl.1.0.0.UPF
     MD5 check sum: cd3d296c3308a581e1559a0c8a554cb5
     Pseudo is Projector augmented-wave + core cor, Zval =  7.0
     Generated using "atomic" code by A. Dal Corso v.6.3
     Shape of augmentation charge: PSQ
     Using radial grid of 1247 points,  6 beta functions with: 
                l(1) =   0
                l(2) =   0
                l(3) =   1
                l(4) =   1
                l(5) =   2
                l(6) =   2
     Q(r) pseudized with 0 coefficients 


     PseudoPot. # 3 for C  read from file:
     ../Pseudopotential/C.pbe-n-kjpaw_psl.1.0.0.UPF
     MD5 check sum: 5f16ad9a65e90284d1d834d4ab3b0f7d
     Pseudo is Projector augmented-wave + core cor, Zval =  4.0
     Generated using "atomic" code by A. Dal Corso v.6.3
     Shape of augmentation charge: PSQ
     Using radial grid of 1073 points,  4 beta functions with: 
                l(1) =   0
                l(2) =   0
                l(3) =   1
                l(4) =   1
     Q(r) pseudized with 0 coefficients 


     PseudoPot. # 4 for N  read from file:
     ../Pseudopotential/N.pbe-n-kjpaw_psl.1.0.0.UPF
     MD5 check sum: 14c48229446f9f2d411169a3abcbc3fa
     Pseudo is Projector augmented-wave + core cor, Zval =  5.0
     Generated using "atomic" code by A. Dal Corso v.6.3
     Shape of augmentation charge: PSQ
     Using radial grid of 1085 points,  4 beta functions with: 
                l(1) =   0
                l(2) =   0
                l(3) =   1
                l(4) =   1
     Q(r) pseudized with 0 coefficients 


     PseudoPot. # 5 for H  read from file:
     ../Pseudopotential/H.pbe-kjpaw_psl.1.0.0.UPF
     MD5 check sum: d81a744832360e4a8af0b0b5b123bc2a
     Pseudo is Projector augmented-wave, Zval =  1.0
     Generated using "atomic" code by A. Dal Corso v.6.3MaX
     Shape of augmentation charge: PSQ
     Using radial grid of  929 points,  2 beta functions with: 
                l(1) =   0
                l(2) =   0
     Q(r) pseudized with 0 coefficients 


     atomic species   valence    mass     pseudopotential
        Pb            14.00   207.97600     Pb( 1.00)
        I              7.00   126.90400     I ( 1.00)
        C              4.00    12.00000     C ( 1.00)
        N              5.00    14.00300     N ( 1.00)
        H              1.00     1.00700     H ( 1.00)

     No symmetry found



   Cartesian axes

     site n.     atom                  positions (alat units)
         1           Pb  tau(   1) = (   0.0018457   0.0031839   0.0015191  )
         2           Pb  tau(   2) = (   0.0016638   0.0040818   0.4877052  )
         3           Pb  tau(   3) = (   0.0028223   0.5019630   0.0003921  )
         4           Pb  tau(   4) = (   0.0016030   0.5035188   0.4886604  )
         5           Pb  tau(   5) = (   0.5028334   0.0038468   0.0023648  )
         6           Pb  tau(   6) = (   0.5023493   0.0045214   0.4883913  )
         7           Pb  tau(   7) = (   0.5054344   0.4991414   0.0030350  )
         8           Pb  tau(   8) = (   0.5041438   0.5014859   0.4873985  )
         9           I   tau(   9) = (   0.2531930   0.0104883  -0.0299740  )
        10           I   tau(  10) = (   0.0331876   0.2537207   0.0334932  )
        11           I   tau(  11) = (   0.0415979  -0.0434261   0.2439706  )
        12           I   tau(  12) = (   0.2531331   0.0218819   0.5173111  )
        13           I   tau(  13) = (   0.0230048   0.2552429   0.4512004  )
        14           I   tau(  14) = (  -0.0439834   0.0467166   0.7299929  )
        15           I   tau(  15) = (   0.2547215   0.5326887   0.0215531  )
        16           I   tau(  16) = (   0.0070765   0.7488900  -0.0454568  )
        17           I   tau(  17) = (  -0.0361756   0.5416069   0.2436720  )
        18           I   tau(  18) = (   0.2538541   0.5267116   0.4673068  )
        19           I   tau(  19) = (   0.0198167   0.7511542   0.5268607  )
        20           I   tau(  20) = (   0.0351770   0.4519175   0.7302467  )
        21           I   tau(  21) = (   0.7522146   0.0330297   0.0335207  )
        22           I   tau(  22) = (   0.5066484   0.2523724  -0.0357443  )
        23           I   tau(  23) = (   0.4583390   0.0435326   0.2448089  )
        24           I   tau(  24) = (   0.7521198   0.0236476   0.4538352  )
        25           I   tau(  25) = (   0.5154907   0.2538552   0.5202657  )
        26           I   tau(  26) = (   0.5412550  -0.0406048   0.7304182  )
        27           I   tau(  27) = (   0.7538005   0.5039442  -0.0302742  )
        28           I   tau(  28) = (   0.5320093   0.7476467   0.0323169  )
        29           I   tau(  29) = (   0.5389342   0.4549616   0.2451630  )
        30           I   tau(  30) = (   0.7530172   0.5179172   0.5177394  )
        31           I   tau(  31) = (   0.5223774   0.7496604   0.4514192  )
        32           I   tau(  32) = (   0.4711233   0.5318812   0.7306903  )
        33           C   tau(  33) = (   0.2860712   0.2866959   0.2413073  )
        34           C   tau(  34) = (   0.2796860   0.2851595   0.7273554  )
        35           C   tau(  35) = (   0.2865815   0.7834500   0.2421743  )
        36           C   tau(  36) = (   0.2826923   0.7727393   0.7247130  )
        37           C   tau(  37) = (   0.7840502   0.2882805   0.2414454  )
        38           C   tau(  38) = (   0.7833788   0.2852764   0.7262728  )
        39           C   tau(  39) = (   0.7903559   0.7801180   0.2407284  )
        40           C   tau(  40) = (   0.7830525   0.7816554   0.7244641  )
        41           N   tau(  41) = (   0.2074452   0.2003214   0.2464289  )
        42           N   tau(  42) = (   0.2031706   0.1969885   0.7335337  )
        43           N   tau(  43) = (   0.2067380   0.6982850   0.2466650  )
        44           N   tau(  44) = (   0.2127237   0.6795458   0.7337473  )
        45           N   tau(  45) = (   0.6995220   0.2077402   0.2476174  )
        46           N   tau(  46) = (   0.6973432   0.2062480   0.7302544  )
        47           N   tau(  47) = (   0.7066347   0.6986788   0.2456644  )
        48           N   tau(  48) = (   0.7051280   0.6957014   0.7355639  )
        49           H   tau(  49) = (   0.1585077   0.2017420   0.1808541  )
        50           H   tau(  50) = (   0.1588815   0.2084934   0.3118147  )
        51           H   tau(  51) = (   0.2437677   0.1280665   0.2500072  )
        52           H   tau(  52) = (   0.3355895   0.2747953   0.1724256  )
        53           H   tau(  53) = (   0.3341379   0.2848747   0.3121760  )
        54           H   tau(  54) = (   0.2445127   0.3613708   0.2357112  )
        55           H   tau(  55) = (   0.2101866   0.1475750   0.6687028  )
        56           H   tau(  56) = (   0.1269085   0.2237363   0.7363123  )
        57           H   tau(  57) = (   0.2156788   0.1504991   0.7996203  )
        58           H   tau(  58) = (   0.2636397   0.3304515   0.6564517  )
        59           H   tau(  59) = (   0.3587803   0.2525665   0.7245909  )
        60           H   tau(  60) = (   0.2701804   0.3348644   0.7964236  )
        61           H   tau(  61) = (   0.2115536   0.6503323   0.1807717  )
        62           H   tau(  62) = (   0.1318372   0.7285114   0.2505554  )
        63           H   tau(  63) = (   0.2171574   0.6501559   0.3119600  )
        64           H   tau(  64) = (   0.2718988   0.8318751   0.1731835  )
        65           H   tau(  65) = (   0.3643855   0.7484129   0.2366580  )
        66           H   tau(  66) = (   0.2795073   0.8313256   0.3126730  )
        67           H   tau(  67) = (   0.2127057   0.6357866   0.6655196  )
        68           H   tau(  68) = (   0.1361676   0.7014081   0.7489519  )
        69           H   tau(  69) = (   0.2355464   0.6309675   0.7946368  )
        70           H   tau(  70) = (   0.2570920   0.8198342   0.6579939  )
        71           H   tau(  71) = (   0.3629137   0.7455872   0.7129362  )
        72           H   tau(  72) = (   0.2773075   0.8183160   0.7969697  )
        73           H   tau(  73) = (   0.7023076   0.1580053   0.1827074  )
        74           H   tau(  74) = (   0.6264003   0.2423775   0.2504345  )
        75           H   tau(  75) = (   0.7082966   0.1603298   0.3137035  )
        76           H   tau(  76) = (   0.7720243   0.3352771   0.1708534  )
        77           H   tau(  77) = (   0.8598164   0.2485039   0.2381820  )
        78           H   tau(  78) = (   0.7796308   0.3382515   0.3108763  )
        79           H   tau(  79) = (   0.6489040   0.2124172   0.6646471  )
        80           H   tau(  80) = (   0.6492729   0.2170048   0.7954802  )
        81           H   tau(  81) = (   0.7264969   0.1309107   0.7330398  )
        82           H   tau(  82) = (   0.8313761   0.2702430   0.6569969  )
        83           H   tau(  83) = (   0.8311017   0.2778987   0.7969167  )
        84           H   tau(  84) = (   0.7487915   0.3633758   0.7216951  )
        85           H   tau(  85) = (   0.6576149   0.7037217   0.1803544  )
        86           H   tau(  86) = (   0.6589566   0.7085558   0.3114418  )
        87           H   tau(  87) = (   0.7378724   0.6242097   0.2483091  )
        88           H   tau(  88) = (   0.8374833   0.7667373   0.1704877  )
        89           H   tau(  89) = (   0.8392182   0.7738359   0.3107250  )
        90           H   tau(  90) = (   0.7536485   0.8573258   0.2369240  )
        91           H   tau(  91) = (   0.7071569   0.6458586   0.6710843  )
        92           H   tau(  92) = (   0.6299772   0.7243036   0.7423471  )
        93           H   tau(  93) = (   0.7196885   0.6492970   0.8010174  )
        94           H   tau(  94) = (   0.7638855   0.8271793   0.6547167  )
        95           H   tau(  95) = (   0.8609070   0.7474505   0.7167944  )
        96           H   tau(  96) = (   0.7795280   0.8314570   0.7937657  )

     number of k points=    32
                       cart. coord. in units 2pi/alat
        k(    1) = (   0.1251156   0.1260063   0.1285781), wk =   0.0625000
        k(    2) = (   0.1251156   0.1260063   0.3857342), wk =   0.0625000
        k(    3) = (   0.1251156   0.3780189   0.1285781), wk =   0.0625000
        k(    4) = (   0.1251156   0.3780189   0.3857342), wk =   0.0625000
        k(    5) = (   0.3753467   0.1260063   0.1285781), wk =   0.0625000
        k(    6) = (   0.3753467   0.1260063   0.3857342), wk =   0.0625000
        k(    7) = (   0.3753467   0.3780189   0.1285781), wk =   0.0625000
        k(    8) = (   0.3753467   0.3780189   0.3857342), wk =   0.0625000
        k(    9) = (  -0.1251156  -0.1260063   0.1285781), wk =   0.0625000
        k(   10) = (  -0.1251156   0.1260063  -0.1285781), wk =   0.0625000
        k(   11) = (   0.1251156  -0.1260063  -0.1285781), wk =   0.0625000
        k(   12) = (  -0.1251156  -0.1260063   0.3857342), wk =   0.0625000
        k(   13) = (  -0.1251156   0.1260063  -0.3857342), wk =   0.0625000
        k(   14) = (   0.1251156  -0.1260063  -0.3857342), wk =   0.0625000
        k(   15) = (  -0.1251156  -0.3780189   0.1285781), wk =   0.0625000
        k(   16) = (  -0.1251156   0.3780189  -0.1285781), wk =   0.0625000
        k(   17) = (   0.1251156  -0.3780189  -0.1285781), wk =   0.0625000
        k(   18) = (  -0.1251156  -0.3780189   0.3857342), wk =   0.0625000
        k(   19) = (  -0.1251156   0.3780189  -0.3857342), wk =   0.0625000
        k(   20) = (   0.1251156  -0.3780189  -0.3857342), wk =   0.0625000
        k(   21) = (  -0.3753467  -0.1260063   0.1285781), wk =   0.0625000
        k(   22) = (  -0.3753467   0.1260063  -0.1285781), wk =   0.0625000
        k(   23) = (   0.3753467  -0.1260063  -0.1285781), wk =   0.0625000
        k(   24) = (  -0.3753467  -0.1260063   0.3857342), wk =   0.0625000
        k(   25) = (  -0.3753467   0.1260063  -0.3857342), wk =   0.0625000
        k(   26) = (   0.3753467  -0.1260063  -0.3857342), wk =   0.0625000
        k(   27) = (  -0.3753467  -0.3780189   0.1285781), wk =   0.0625000
        k(   28) = (  -0.3753467   0.3780189  -0.1285781), wk =   0.0625000
        k(   29) = (   0.3753467  -0.3780189  -0.1285781), wk =   0.0625000
        k(   30) = (  -0.3753467  -0.3780189   0.3857342), wk =   0.0625000
        k(   31) = (  -0.3753467   0.3780189  -0.3857342), wk =   0.0625000
        k(   32) = (   0.3753467  -0.3780189  -0.3857342), wk =   0.0625000

     Dense  grid:  2410621 G-vectors     FFT dimensions: ( 180, 180, 180)

     Estimated max dynamical RAM per process >       3.11 GB

     Estimated total dynamical RAM >      99.57 GB

     Initial potential from superposition of free atoms

     starting charge  399.97850, renormalised to  400.00000
     Starting wfcs are  280 randomized atomic wfcs
     Checking if some PAW data can be deallocated... 

     total cpu time spent up to now is      801.0 secs

     Self-consistent Calculation

     iteration #  1     ecut=   120.00 Ry     beta= 0.70
     Davidson diagonalization with overlap
     ethr =  1.00E-02,  avg # of iterations =  2.0

     total cpu time spent up to now is     2209.8 secs

     total energy              =  -16489.36401912 Ry
     Harris-Foulkes estimate   =  -16492.76604472 Ry
     estimated scf accuracy    <       5.71394260 Ry

     iteration #  2     ecut=   120.00 Ry     beta= 0.70
     Davidson diagonalization with overlap
     ethr =  1.43E-03,  avg # of iterations =  3.0

     total cpu time spent up to now is     4182.1 secs

     total energy              =  -16490.60521985 Ry
     Harris-Foulkes estimate   =  -16491.83321826 Ry
     estimated scf accuracy    <       2.18210727 Ry

     iteration #  3     ecut=   120.00 Ry     beta= 0.70
     Davidson diagonalization with overlap
     ethr =  5.46E-04,  avg # of iterations =  3.0

     total cpu time spent up to now is     5759.3 secs

     total energy              =  -16491.12073319 Ry
     Harris-Foulkes estimate   =  -16491.16477534 Ry
     estimated scf accuracy    <       0.10148202 Ry

     iteration #  4     ecut=   120.00 Ry     beta= 0.70
     Davidson diagonalization with overlap
     ethr =  2.54E-05,  avg # of iterations =  3.0

     total cpu time spent up to now is     7638.3 secs

     total energy              =  -16491.14518255 Ry
     Harris-Foulkes estimate   =  -16491.15577297 Ry
     estimated scf accuracy    <       0.01937738 Ry

     iteration #  5     ecut=   120.00 Ry     beta= 0.70
     Davidson diagonalization with overlap
     ethr =  4.84E-06,  avg # of iterations =  2.0

     total cpu time spent up to now is     9336.0 secs

     total energy              =  -16491.14916822 Ry
     Harris-Foulkes estimate   =  -16491.15016129 Ry
     estimated scf accuracy    <       0.00176958 Ry

     iteration #  6     ecut=   120.00 Ry     beta= 0.70
     Davidson diagonalization with overlap
     ethr =  4.42E-07,  avg # of iterations =  3.0

     total cpu time spent up to now is    11218.4 secs

     total energy              =  -16491.14967465 Ry
     Harris-Foulkes estimate   =  -16491.15013829 Ry
     estimated scf accuracy    <       0.00110637 Ry

     iteration #  7     ecut=   120.00 Ry     beta= 0.70
     Davidson diagonalization with overlap
     ethr =  2.77E-07,  avg # of iterations =  2.3

     total cpu time spent up to now is    12769.6 secs

     total energy              =  -16491.14989832 Ry
     Harris-Foulkes estimate   =  -16491.14991055 Ry
     estimated scf accuracy    <       0.00003426 Ry

     iteration #  8     ecut=   120.00 Ry     beta= 0.70
     Davidson diagonalization with overlap
     ethr =  8.57E-09,  avg # of iterations =  3.1

     total cpu time spent up to now is    14919.0 secs

     total energy              =  -16491.14991136 Ry
     Harris-Foulkes estimate   =  -16491.14991569 Ry
     estimated scf accuracy    <       0.00000967 Ry

     iteration #  9     ecut=   120.00 Ry     beta= 0.70
     Davidson diagonalization with overlap
     ethr =  2.42E-09,  avg # of iterations =  3.0

     total cpu time spent up to now is    16540.7 secs

     total energy              =  -16491.14991350 Ry
     Harris-Foulkes estimate   =  -16491.14991407 Ry
     estimated scf accuracy    <       0.00000122 Ry

     iteration # 10     ecut=   120.00 Ry     beta= 0.70
     Davidson diagonalization with overlap
     ethr =  3.06E-10,  avg # of iterations =  3.3

     total cpu time spent up to now is    18320.2 secs

     total energy              =  -16491.14991381 Ry
     Harris-Foulkes estimate   =  -16491.14991392 Ry
     estimated scf accuracy    <       0.00000024 Ry

     iteration # 11     ecut=   120.00 Ry     beta= 0.70
     Davidson diagonalization with overlap
     ethr =  5.90E-11,  avg # of iterations =  3.0

     total cpu time spent up to now is    19971.9 secs

     End of self-consistent calculation

          k = 0.1251 0.1260 0.1286 (301363 PWs)   bands (ev):

   -17.6006 -17.5481 -17.5336 -17.4730 -17.4618 -17.4594 -17.4449 -17.4411
   -14.3361 -14.3330 -14.3245 -14.3186 -14.3093 -14.3036 -14.3019 -14.2975
   -14.2970 -14.2954 -14.2940 -14.2916 -14.2873 -14.2870 -14.2863 -14.2847
   -14.2828 -14.2819 -14.2766 -14.2762 -14.2746 -14.2685 -14.2638 -14.2634
   -14.2632 -14.2598 -14.2597 -14.2589 -14.2558 -14.2543 -14.2536 -14.2527
   -14.2502 -14.2485 -14.2463 -14.2453 -14.2393 -14.2292 -14.2251 -14.2166
   -10.5525 -10.5323 -10.5282 -10.5161 -10.5062 -10.4946 -10.4895 -10.4768
    -9.7370  -9.5885  -9.5374  -9.5249  -9.4211  -9.3903  -9.3550  -9.3316
    -9.3230  -9.2981  -9.2864  -9.2765  -9.2516  -9.2355  -9.2212  -9.2055
    -9.1833  -9.1735  -9.1496  -9.0994  -9.0774  -9.0522  -9.0323  -8.9898
    -7.0466  -7.0127  -7.0061  -6.9694  -6.9685  -6.9679  -6.9648  -6.9573
    -6.9372  -6.8871  -6.8825  -6.8216  -6.8133  -6.8074  -6.7942  -6.7798
    -5.9388  -5.5049  -5.4853  -5.4787  -5.0796  -5.0620  -5.0444  -4.9181
    -4.9049  -4.8971  -4.8656  -4.8597  -4.8543  -4.8428  -4.8269  -4.5978
    -2.8672  -2.8370  -2.8181  -2.8054  -2.8016  -2.7930  -2.7900  -2.7834
    -2.7799  -2.7756  -2.7661  -2.7520  -2.7488  -2.7428  -2.7379  -2.7329
    -0.9331  -0.9070  -0.8903  -0.8565  -0.7981  -0.7868  -0.7623  -0.7489
    -0.7253  -0.6677  -0.6200  -0.5536   0.1822   0.2501   0.2555   0.2943
     0.3702   0.3754   0.4170   0.4504   0.4683   0.5456   0.5620   0.5800
     0.5924   0.6763   0.6954   0.7530   0.7674   0.7919   0.8211   0.8726
     0.8929   0.9064   0.9228   0.9352   0.9509   0.9800   0.9920   1.0069
     1.0299   1.0409   1.0719   1.0801   1.0867   1.1245   1.1331   1.1508
     1.1677   1.1868   1.1949   1.2086   1.2162   1.2268   1.2350   1.2613
     1.2743   1.2882   1.3126   1.3839   1.4262   1.4683   1.4880   1.5416
     1.5811   1.6079   1.6121   1.6318   1.6962   1.7758   1.8173   2.0408

          k = 0.1251 0.1260 0.3857 (301332 PWs)   bands (ev):

   -17.6006 -17.5481 -17.5336 -17.4730 -17.4618 -17.4594 -17.4449 -17.4411
   -14.3357 -14.3312 -14.3248 -14.3203 -14.3093 -14.3023 -14.3013 -14.2975
   -14.2966 -14.2954 -14.2940 -14.2910 -14.2883 -14.2873 -14.2863 -14.2847
   -14.2835 -14.2828 -14.2766 -14.2754 -14.2746 -14.2685 -14.2639 -14.2634
   -14.2634 -14.2598 -14.2597 -14.2589 -14.2558 -14.2544 -14.2542 -14.2529
   -14.2502 -14.2485 -14.2463 -14.2453 -14.2393 -14.2292 -14.2251 -14.2166
   -10.5512 -10.5331 -10.5281 -10.5142 -10.5081 -10.4941 -10.4903 -10.4772
    -9.7046  -9.6445  -9.5100  -9.4955  -9.4607  -9.4400  -9.3505  -9.3426
    -9.3179  -9.3037  -9.2816  -9.2729  -9.2419  -9.2278  -9.2022  -9.1857
    -9.1728  -9.1437  -9.1290  -9.1048  -9.0947  -9.0583  -9.0459  -9.0114
    -7.0480  -7.0072  -7.0057  -6.9699  -6.9690  -6.9666  -6.9649  -6.9608
    -6.9389  -6.8881  -6.8802  -6.8168  -6.8098  -6.8055  -6.7972  -6.7842
    -5.8154  -5.6255  -5.3884  -5.3694  -5.2060  -5.1880  -4.9953  -4.9267
    -4.9002  -4.8978  -4.8762  -4.8581  -4.8551  -4.8320  -4.8214  -4.7273
    -2.8657  -2.8361  -2.8197  -2.8025  -2.7969  -2.7909  -2.7850  -2.7819
    -2.7767  -2.7699  -2.7642  -2.7563  -2.7525  -2.7471  -2.7438  -2.7384
    -0.8786  -0.8587  -0.8373  -0.7943  -0.7570  -0.7349  -0.7002  -0.6723
    -0.5235  -0.3987  -0.3949  -0.2545   0.0218   0.1200   0.1340   0.2286
     0.2886   0.3097   0.3492   0.3698   0.4020   0.4245   0.4336   0.4832
     0.4932   0.5483   0.7068   0.7112   0.7356   0.7648   0.8340   0.8527
     0.8703   0.8847   0.9056   0.9303   0.9726   0.9808   0.9990   1.0128
     1.0348   1.0564   1.0701   1.0791   1.0954   1.1093   1.1218   1.1469
     1.1546   1.1802   1.1943   1.2095   1.2238   1.2407   1.2489   1.2702
     1.3043   1.3179   1.3493   1.3777   1.3979   1.4066   1.4462   1.5007
     1.5526   1.5795   1.6022   1.6124   1.6263   1.6405   1.7320   1.8338

          k = 0.1251 0.3780 0.1286 (301322 PWs)   bands (ev):

   -17.6006 -17.5481 -17.5336 -17.4730 -17.4618 -17.4594 -17.4449 -17.4411
   -14.3359 -14.3324 -14.3242 -14.3181 -14.3100 -14.3036 -14.3018 -14.2975
   -14.2968 -14.2960 -14.2940 -14.2907 -14.2873 -14.2871 -14.2863 -14.2850
   -14.2828 -14.2818 -14.2768 -14.2766 -14.2746 -14.2685 -14.2638 -14.2635
   -14.2634 -14.2598 -14.2597 -14.2589 -14.2558 -14.2543 -14.2538 -14.2527
   -14.2502 -14.2485 -14.2463 -14.2453 -14.2393 -14.2292 -14.2251 -14.2166
   -10.5517 -10.5321 -10.5256 -10.5166 -10.5065 -10.4971 -10.4883 -10.4788
    -9.7007  -9.6035  -9.5595  -9.5046  -9.4716  -9.3996  -9.3951  -9.3417
    -9.3288  -9.3018  -9.2693  -9.2568  -9.2392  -9.2192  -9.2136  -9.1886
    -9.1675  -9.1401  -9.1277  -9.1048  -9.0853  -9.0714  -9.0379  -9.0125
    -7.0466  -7.0126  -7.0060  -6.9697  -6.9678  -6.9674  -6.9647  -6.9581
    -6.9374  -6.8866  -6.8822  -6.8216  -6.8139  -6.8072  -6.7949  -6.7804
    -5.8207  -5.6283  -5.3922  -5.3687  -5.2135  -5.1843  -4.9780  -4.9240
    -4.9112  -4.8952  -4.8644  -4.8595  -4.8531  -4.8369  -4.8222  -4.7180
    -2.8580  -2.8452  -2.8136  -2.8039  -2.7978  -2.7931  -2.7897  -2.7823
    -2.7783  -2.7705  -2.7657  -2.7541  -2.7526  -2.7477  -2.7433  -2.7357
    -0.9191  -0.8980  -0.8265  -0.8159  -0.7893  -0.7513  -0.6924  -0.5924
    -0.4974  -0.4007  -0.3515  -0.2496   0.0615   0.1526   0.2211   0.2324
     0.2851   0.3073   0.3220   0.3317   0.3955   0.4210   0.4418   0.4984
     0.5247   0.5729   0.6088   0.6290   0.6977   0.7750   0.8010   0.8171
     0.8553   0.8858   0.8939   0.9306   0.9535   0.9748   0.9811   0.9934
     1.0209   1.0397   1.0558   1.0811   1.0972   1.1065   1.1461   1.1659
     1.1829   1.1948   1.2138   1.2231   1.2296   1.2517   1.2663   1.2848
     1.2961   1.3135   1.3567   1.3637   1.4280   1.4519   1.4808   1.4999
     1.5216   1.5513   1.5609   1.5672   1.5956   1.6298   1.7989   1.8556

          k = 0.1251 0.3780 0.3857 (301355 PWs)   bands (ev):

   -17.6006 -17.5481 -17.5336 -17.4730 -17.4618 -17.4594 -17.4449 -17.4411
   -14.3355 -14.3308 -14.3246 -14.3198 -14.3100 -14.3023 -14.3012 -14.2975
   -14.2965 -14.2960 -14.2940 -14.2899 -14.2884 -14.2873 -14.2863 -14.2850
   -14.2837 -14.2828 -14.2766 -14.2759 -14.2746 -14.2685 -14.2638 -14.2637
   -14.2634 -14.2598 -14.2597 -14.2589 -14.2559 -14.2545 -14.2543 -14.2529
   -14.2502 -14.2485 -14.2463 -14.2453 -14.2393 -14.2292 -14.2251 -14.2166
   -10.5506 -10.5326 -10.5257 -10.5144 -10.5086 -10.4965 -10.4887 -10.4794
    -9.6706  -9.6130  -9.5734  -9.5253  -9.4718  -9.4278  -9.3791  -9.3567
    -9.3367  -9.3199  -9.2504  -9.2495  -9.2379  -9.2009  -9.1904  -9.1604
    -9.1503  -9.1402  -9.1216  -9.1068  -9.0982  -9.0692  -9.0598  -9.0323
    -7.0482  -7.0071  -7.0056  -6.9698  -6.9687  -6.9663  -6.9652  -6.9613
    -6.9389  -6.8879  -6.8801  -6.8168  -6.8100  -6.8055  -6.7972  -6.7845
    -5.7005  -5.5138  -5.5103  -5.3291  -5.2794  -5.1145  -5.1041  -4.9776
    -4.9076  -4.8970  -4.8778  -4.8558  -4.8534  -4.8393  -4.8298  -4.8006
    -2.8576  -2.8456  -2.8175  -2.8047  -2.7950  -2.7914  -2.7866  -2.7807
    -2.7776  -2.7696  -2.7651  -2.7556  -2.7500  -2.7463  -2.7446  -2.7386
    -0.8702  -0.8193  -0.7804  -0.7295  -0.5758  -0.4757  -0.4531  -0.4326
    -0.3701  -0.3343  -0.2958  -0.2773   0.0264   0.0884   0.1178   0.1365
     0.1970   0.2164   0.2411   0.3002   0.3426   0.3642   0.3915   0.4036
     0.4690   0.5162   0.5666   0.5935   0.6530   0.7153   0.7349   0.7870
     0.8254   0.8427   0.8680   0.9181   0.9314   0.9441   0.9687   0.9820
     1.0075   1.0333   1.0396   1.0464   1.0698   1.0898   1.1195   1.1315
     1.1776   1.1914   1.2173   1.2263   1.2355   1.2597   1.2841   1.3048
     1.3339   1.3475   1.3684   1.3745   1.4062   1.4303   1.4512   1.4623
     1.4819   1.5187   1.5295   1.5494   1.5696   1.6124   1.6277   1.6739

          k = 0.3753 0.1260 0.1286 (301347 PWs)   bands (ev):

   -17.6006 -17.5481 -17.5336 -17.4730 -17.4618 -17.4594 -17.4448 -17.4411
   -14.3356 -14.3329 -14.3240 -14.3185 -14.3090 -14.3033 -14.3024 -14.2976
   -14.2974 -14.2951 -14.2940 -14.2918 -14.2873 -14.2867 -14.2863 -14.2853
   -14.2828 -14.2820 -14.2766 -14.2763 -14.2746 -14.2685 -14.2638 -14.2637
   -14.2634 -14.2598 -14.2597 -14.2589 -14.2558 -14.2543 -14.2536 -14.2527
   -14.2502 -14.2485 -14.2463 -14.2453 -14.2393 -14.2292 -14.2251 -14.2166
   -10.5522 -10.5315 -10.5287 -10.5142 -10.5048 -10.4977 -10.4899 -10.4777
    -9.6998  -9.6025  -9.5573  -9.5130  -9.4743  -9.4178  -9.3903  -9.3460
    -9.3171  -9.2880  -9.2769  -9.2430  -9.2292  -9.2161  -9.1924  -9.1819
    -9.1711  -9.1530  -9.1399  -9.1272  -9.0802  -9.0734  -9.0603  -8.9902
    -7.0466  -7.0127  -7.0060  -6.9694  -6.9682  -6.9668  -6.9649  -6.9578
    -6.9375  -6.8873  -6.8826  -6.8212  -6.8138  -6.8065  -6.7941  -6.7812
    -5.8251  -5.6368  -5.3822  -5.3728  -5.2094  -5.1914  -4.9700  -4.9264
    -4.9110  -4.8883  -4.8713  -4.8573  -4.8514  -4.8363  -4.8222  -4.7151
    -2.8642  -2.8358  -2.8117  -2.8054  -2.7978  -2.7904  -2.7892  -2.7831
    -2.7802  -2.7755  -2.7692  -2.7602  -2.7519  -2.7435  -2.7402  -2.7337
    -0.9186  -0.8874  -0.8161  -0.8073  -0.7814  -0.7196  -0.6826  -0.6111
    -0.5091  -0.4183  -0.3583  -0.2701   0.0589   0.1428   0.2181   0.2397
     0.2744   0.2989   0.3227   0.3284   0.3900   0.4116   0.4333   0.4932
     0.5039   0.5652   0.6193   0.6354   0.7032   0.7491   0.7768   0.8044
     0.8516   0.8573   0.8971   0.9457   0.9507   0.9673   0.9887   1.0136
     1.0357   1.0542   1.0627   1.0754   1.0933   1.1200   1.1425   1.1555
     1.1832   1.2004   1.2164   1.2302   1.2370   1.2554   1.2714   1.2802
     1.2952   1.3024   1.3264   1.3825   1.4153   1.4612   1.4741   1.5138
     1.5365   1.5446   1.5673   1.5883   1.6054   1.6237   1.8304   1.8821

          k = 0.3753 0.1260 0.3857 (301352 PWs)   bands (ev):

   -17.6006 -17.5481 -17.5336 -17.4730 -17.4618 -17.4594 -17.4448 -17.4411
   -14.3353 -14.3312 -14.3242 -14.3203 -14.3090 -14.3020 -14.3017 -14.2975
   -14.2971 -14.2951 -14.2940 -14.2911 -14.2880 -14.2873 -14.2863 -14.2851
   -14.2838 -14.2828 -14.2766 -14.2754 -14.2746 -14.2685 -14.2639 -14.2638
   -14.2634 -14.2598 -14.2597 -14.2589 -14.2558 -14.2544 -14.2542 -14.2529
   -14.2502 -14.2485 -14.2463 -14.2453 -14.2393 -14.2292 -14.2251 -14.2166
   -10.5509 -10.5323 -10.5285 -10.5131 -10.5058 -10.4972 -10.4905 -10.4783
    -9.6693  -9.6114  -9.5725  -9.5241  -9.4830  -9.4361  -9.3979  -9.3730
    -9.3023  -9.2940  -9.2625  -9.2351  -9.2112  -9.1957  -9.1796  -9.1752
    -9.1583  -9.1461  -9.1401  -9.1176  -9.1020  -9.0828  -9.0580  -9.0147
    -7.0481  -7.0072  -7.0056  -6.9695  -6.9682  -6.9664  -6.9654  -6.9612
    -6.9389  -6.8882  -6.8802  -6.8168  -6.8099  -6.8053  -6.7972  -6.7845
    -5.7046  -5.5193  -5.5173  -5.3359  -5.2701  -5.1107  -5.0952  -4.9749
    -4.9076  -4.8935  -4.8821  -4.8541  -4.8511  -4.8407  -4.8298  -4.7999
    -2.8636  -2.8357  -2.8127  -2.8031  -2.7986  -2.7908  -2.7849  -2.7804
    -2.7747  -2.7712  -2.7670  -2.7591  -2.7558  -2.7472  -2.7443  -2.7386
    -0.8623  -0.8074  -0.7571  -0.6992  -0.5741  -0.4857  -0.4586  -0.4391
    -0.3891  -0.3438  -0.3147  -0.2654   0.0266   0.0725   0.1070   0.1407
     0.1801   0.2014   0.2270   0.2883   0.3563   0.3638   0.3947   0.4092
     0.4852   0.5420   0.5770   0.6146   0.6248   0.6759   0.6938   0.7534
     0.7844   0.8345   0.8496   0.8801   0.8959   0.9521   0.9747   0.9944
     1.0105   1.0315   1.0432   1.0683   1.0810   1.1171   1.1327   1.1651
     1.1859   1.2100   1.2265   1.2376   1.2549   1.2606   1.2884   1.2939
     1.3167   1.3361   1.3506   1.3864   1.4082   1.4226   1.4567   1.4808
     1.4931   1.5226   1.5372   1.5580   1.5809   1.6153   1.6437   1.6920

          k = 0.3753 0.3780 0.1286 (301311 PWs)   bands (ev):

   -17.6006 -17.5481 -17.5336 -17.4730 -17.4618 -17.4594 -17.4448 -17.4411
   -14.3355 -14.3324 -14.3236 -14.3181 -14.3097 -14.3033 -14.3023 -14.2976
   -14.2972 -14.2957 -14.2941 -14.2908 -14.2873 -14.2868 -14.2863 -14.2857
   -14.2828 -14.2818 -14.2768 -14.2766 -14.2746 -14.2685 -14.2640 -14.2638
   -14.2634 -14.2598 -14.2597 -14.2589 -14.2558 -14.2544 -14.2538 -14.2527
   -14.2502 -14.2485 -14.2463 -14.2453 -14.2393 -14.2292 -14.2251 -14.2166
   -10.5516 -10.5313 -10.5273 -10.5152 -10.5060 -10.4982 -10.4883 -10.4789
    -9.6655  -9.5893  -9.5695  -9.5314  -9.4649  -9.4600  -9.4439  -9.3781
    -9.3138  -9.2630  -9.2468  -9.2248  -9.2212  -9.2007  -9.1897  -9.1749
    -9.1535  -9.1446  -9.1391  -9.1149  -9.0954  -9.0847  -9.0571  -9.0136
    -7.0467  -7.0126  -7.0060  -6.9701  -6.9677  -6.9671  -6.9644  -6.9574
    -6.9372  -6.8868  -6.8823  -6.8211  -6.8138  -6.8072  -6.7948  -6.7816
    -5.7101  -5.5391  -5.5070  -5.3440  -5.2707  -5.0999  -5.0715  -4.9827
    -4.9141  -4.8934  -4.8770  -4.8575  -4.8513  -4.8381  -4.8278  -4.7908
    -2.8558  -2.8434  -2.8091  -2.8012  -2.7944  -2.7897  -2.7883  -2.7816
    -2.7775  -2.7744  -2.7685  -2.7614  -2.7559  -2.7485  -2.7438  -2.7384
    -0.8991  -0.7943  -0.7804  -0.6988  -0.5610  -0.5157  -0.4730  -0.4001
    -0.3774  -0.3570  -0.3073  -0.2644   0.0372   0.1074   0.1374   0.1904
     0.2278   0.2480   0.2730   0.2855   0.3071   0.3329   0.3455   0.3940
     0.5151   0.5460   0.5582   0.5770   0.6652   0.6854   0.7094   0.7380
     0.7534   0.7739   0.8100   0.8421   0.8882   0.9257   0.9598   0.9775
     0.9919   1.0252   1.0473   1.0655   1.0932   1.1100   1.1430   1.1639
     1.1812   1.1993   1.2163   1.2387   1.2453   1.2821   1.2930   1.3222
     1.3539   1.3588   1.3845   1.4015   1.4209   1.4379   1.4553   1.4712
     1.4935   1.5008   1.5085   1.5392   1.5560   1.6284   1.6458   1.6718

          k = 0.3753 0.3780 0.3857 (301429 PWs)   bands (ev):

   -17.6006 -17.5481 -17.5336 -17.4730 -17.4618 -17.4594 -17.4448 -17.4411
   -14.3350 -14.3307 -14.3240 -14.3198 -14.3096 -14.3019 -14.3017 -14.2975
   -14.2970 -14.2957 -14.2940 -14.2899 -14.2881 -14.2873 -14.2863 -14.2856
   -14.2837 -14.2828 -14.2766 -14.2759 -14.2746 -14.2685 -14.2642 -14.2638
   -14.2634 -14.2598 -14.2597 -14.2589 -14.2559 -14.2545 -14.2543 -14.2529
   -14.2502 -14.2485 -14.2463 -14.2453 -14.2393 -14.2292 -14.2251 -14.2166
   -10.5505 -10.5316 -10.5274 -10.5140 -10.5072 -10.4976 -10.4886 -10.4796
    -9.6372  -9.5838  -9.5570  -9.5435  -9.5055  -9.4917  -9.4421  -9.4129
    -9.2816  -9.2590  -9.2374  -9.2153  -9.2020  -9.1892  -9.1765  -9.1610
    -9.1591  -9.1412  -9.1270  -9.1209  -9.1104  -9.0811  -9.0726  -9.0334
    -7.0481  -7.0071  -7.0055  -6.9702  -6.9685  -6.9659  -6.9646  -6.9609
    -6.9387  -6.8880  -6.8802  -6.8168  -6.8100  -6.8054  -6.7973  -6.7848
    -5.5938  -5.4237  -5.4118  -5.3921  -5.2430  -5.2399  -5.2122  -5.0830
    -4.9105  -4.8955  -4.8858  -4.8549  -4.8525  -4.8432  -4.8342  -4.8178
    -2.8561  -2.8445  -2.8132  -2.8012  -2.7977  -2.7917  -2.7865  -2.7785
    -2.7751  -2.7724  -2.7700  -2.7562  -2.7527  -2.7473  -2.7449  -2.7381
    -0.5997  -0.5561  -0.5189  -0.4949  -0.4759  -0.4200  -0.4019  -0.3839
    -0.3643  -0.3319  -0.3065  -0.2461   0.0316   0.0670   0.0975   0.1187
     0.1449   0.1595   0.1845   0.2052   0.2393   0.2544   0.2648   0.3214
     0.5387   0.5633   0.5821   0.5954   0.6252   0.6637   0.6881   0.7099
     0.7320   0.7607   0.8099   0.8277   0.8489   0.8667   0.8951   0.9087
     0.9216   0.9489   0.9546   0.9788   1.0059   1.0201   1.0613   1.0811
     1.2088   1.2330   1.2513   1.2601   1.2835   1.2969   1.3110   1.3299
     1.3608   1.3680   1.3830   1.3998   1.4194   1.4276   1.4462   1.4613
     1.4800   1.4860   1.5008   1.5110   1.5241   1.5302   1.5391   1.5553

          k =-0.1251-0.1260 0.1286 (301363 PWs)   bands (ev):

   -17.6006 -17.5481 -17.5336 -17.4730 -17.4618 -17.4594 -17.4449 -17.4411
   -14.3361 -14.3330 -14.3245 -14.3186 -14.3093 -14.3036 -14.3019 -14.2975
   -14.2970 -14.2954 -14.2940 -14.2916 -14.2873 -14.2870 -14.2863 -14.2847
   -14.2828 -14.2819 -14.2766 -14.2762 -14.2746 -14.2685 -14.2638 -14.2634
   -14.2632 -14.2598 -14.2597 -14.2589 -14.2558 -14.2543 -14.2536 -14.2527
   -14.2502 -14.2485 -14.2463 -14.2453 -14.2393 -14.2292 -14.2251 -14.2166
   -10.5525 -10.5324 -10.5282 -10.5160 -10.5063 -10.4946 -10.4896 -10.4768
    -9.7363  -9.5898  -9.5380  -9.5254  -9.4199  -9.3879  -9.3557  -9.3333
    -9.3209  -9.2999  -9.2859  -9.2777  -9.2497  -9.2364  -9.2204  -9.2054
    -9.1888  -9.1667  -9.1509  -9.0998  -9.0775  -9.0522  -9.0326  -8.9900
    -7.0466  -7.0127  -7.0061  -6.9695  -6.9686  -6.9677  -6.9648  -6.9573
    -6.9372  -6.8871  -6.8825  -6.8216  -6.8133  -6.8073  -6.7942  -6.7799
    -5.9386  -5.5050  -5.4859  -5.4783  -5.0794  -5.0619  -5.0443  -4.9183
    -4.9051  -4.8972  -4.8658  -4.8597  -4.8543  -4.8429  -4.8269  -4.5970
    -2.8674  -2.8371  -2.8177  -2.8043  -2.8013  -2.7919  -2.7889  -2.7833
    -2.7795  -2.7755  -2.7660  -2.7530  -2.7496  -2.7445  -2.7385  -2.7338
    -0.9470  -0.9046  -0.8843  -0.8532  -0.8042  -0.7903  -0.7588  -0.7412
    -0.7231  -0.6674  -0.6198  -0.5537   0.1834   0.2480   0.2552   0.2929
     0.3681   0.3734   0.4180   0.4495   0.4671   0.5532   0.5676   0.5800
     0.5930   0.6758   0.7029   0.7506   0.7747   0.7862   0.8222   0.8699
     0.8886   0.9024   0.9175   0.9384   0.9511   0.9723   0.9893   0.9946
     1.0243   1.0485   1.0748   1.0779   1.0923   1.1271   1.1332   1.1470
     1.1704   1.1917   1.2023   1.2122   1.2170   1.2324   1.2417   1.2577
     1.2720   1.2898   1.2975   1.3842   1.4263   1.4723   1.4840   1.5381
     1.5800   1.6046   1.6157   1.6323   1.6958   1.7761   1.8182   2.0452

          k =-0.1251 0.1260-0.1286 (301363 PWs)   bands (ev):

   -17.6006 -17.5481 -17.5336 -17.4730 -17.4618 -17.4594 -17.4449 -17.4411
   -14.3361 -14.3330 -14.3245 -14.3186 -14.3093 -14.3036 -14.3019 -14.2975
   -14.2970 -14.2954 -14.2940 -14.2916 -14.2873 -14.2870 -14.2863 -14.2847
   -14.2828 -14.2819 -14.2766 -14.2762 -14.2746 -14.2685 -14.2638 -14.2634
   -14.2632 -14.2598 -14.2597 -14.2589 -14.2558 -14.2543 -14.2536 -14.2527
   -14.2502 -14.2485 -14.2463 -14.2453 -14.2393 -14.2292 -14.2251 -14.2166
   -10.5526 -10.5321 -10.5289 -10.5165 -10.5066 -10.4938 -10.4894 -10.4763
    -9.7403  -9.5894  -9.5314  -9.5167  -9.4203  -9.3910  -9.3781  -9.3278
    -9.3214  -9.3020  -9.2842  -9.2704  -9.2499  -9.2339  -9.2240  -9.2025
    -9.1904  -9.1662  -9.1480  -9.1025  -9.0756  -9.0523  -9.0333  -8.9897
    -7.0466  -7.0127  -7.0061  -6.9693  -6.9681  -6.9676  -6.9649  -6.9579
    -6.9375  -6.8871  -6.8825  -6.8216  -6.8136  -6.8069  -6.7942  -6.7799
    -5.9390  -5.5022  -5.4883  -5.4766  -5.0792  -5.0644  -5.0514  -4.9179
    -4.9034  -4.8965  -4.8652  -4.8590  -4.8523  -4.8404  -4.8254  -4.5993
    -2.8677  -2.8371  -2.8173  -2.8051  -2.8019  -2.7922  -2.7888  -2.7829
    -2.7806  -2.7757  -2.7657  -2.7533  -2.7479  -2.7446  -2.7384  -2.7331
    -0.9627  -0.9265  -0.8654  -0.8535  -0.7992  -0.7864  -0.7555  -0.7357
    -0.7210  -0.6657  -0.6195  -0.5419   0.1820   0.2403   0.2619   0.3043
     0.3516   0.3708   0.4074   0.4410   0.4608   0.5240   0.5603   0.5690
     0.6392   0.6940   0.7135   0.7205   0.7521   0.7840   0.8215   0.8670
     0.8958   0.9083   0.9329   0.9528   0.9628   0.9883   1.0005   1.0162
     1.0268   1.0392   1.0620   1.0849   1.0971   1.1173   1.1313   1.1370
     1.1652   1.1753   1.1899   1.2017   1.2149   1.2253   1.2331   1.2621
     1.2897   1.2936   1.3035   1.3743   1.4174   1.4770   1.4898   1.5435
     1.5779   1.5988   1.6102   1.6242   1.7376   1.7741   1.8128   2.0603

          k = 0.1251-0.1260-0.1286 (301363 PWs)   bands (ev):

   -17.6006 -17.5481 -17.5336 -17.4730 -17.4618 -17.4594 -17.4449 -17.4411
   -14.3361 -14.3330 -14.3245 -14.3186 -14.3093 -14.3036 -14.3019 -14.2975
   -14.2970 -14.2954 -14.2940 -14.2916 -14.2873 -14.2870 -14.2863 -14.2847
   -14.2828 -14.2819 -14.2766 -14.2762 -14.2746 -14.2685 -14.2638 -14.2634
   -14.2632 -14.2598 -14.2597 -14.2589 -14.2558 -14.2543 -14.2536 -14.2527
   -14.2502 -14.2485 -14.2463 -14.2453 -14.2393 -14.2292 -14.2251 -14.2166
   -10.5526 -10.5321 -10.5289 -10.5164 -10.5067 -10.4938 -10.4894 -10.4763
    -9.7403  -9.5894  -9.5304  -9.5176  -9.4204  -9.3902  -9.3796  -9.3293
    -9.3181  -9.2993  -9.2878  -9.2712  -9.2493  -9.2353  -9.2247  -9.2016
    -9.1827  -9.1745  -9.1467  -9.1019  -9.0758  -9.0522  -9.0334  -8.9896
    -7.0466  -7.0127  -7.0060  -6.9693  -6.9683  -6.9674  -6.9650  -6.9579
    -6.9375  -6.8871  -6.8825  -6.8216  -6.8136  -6.8069  -6.7941  -6.7800
    -5.9391  -5.5023  -5.4877  -5.4768  -5.0792  -5.0645  -5.0515  -4.9179
    -4.9033  -4.8967  -4.8652  -4.8590  -4.8522  -4.8404  -4.8254  -4.5993
    -2.8670  -2.8369  -2.8181  -2.8056  -2.8021  -2.7926  -2.7899  -2.7826
    -2.7810  -2.7755  -2.7657  -2.7514  -2.7491  -2.7434  -2.7383  -2.7329
    -0.9626  -0.9259  -0.8649  -0.8547  -0.7951  -0.7875  -0.7547  -0.7398
    -0.7204  -0.6660  -0.6200  -0.5423   0.1822   0.2405   0.2628   0.3042
     0.3534   0.3679   0.4100   0.4456   0.4569   0.5190   0.5526   0.5753
     0.6410   0.6944   0.7178   0.7266   0.7476   0.7871   0.8368   0.8639
     0.8855   0.8998   0.9305   0.9457   0.9601   0.9849   0.9989   1.0231
     1.0256   1.0509   1.0641   1.0788   1.0975   1.1156   1.1288   1.1406
     1.1633   1.1736   1.1904   1.2070   1.2158   1.2292   1.2334   1.2538
     1.2834   1.2997   1.3095   1.3738   1.4159   1.4769   1.4890   1.5447
     1.5789   1.5996   1.6141   1.6195   1.7392   1.7721   1.8116   2.0609

          k =-0.1251-0.1260 0.3857 (301332 PWs)   bands (ev):

   -17.6006 -17.5481 -17.5336 -17.4730 -17.4618 -17.4594 -17.4449 -17.4411
   -14.3357 -14.3312 -14.3248 -14.3203 -14.3093 -14.3023 -14.3013 -14.2975
   -14.2966 -14.2954 -14.2940 -14.2910 -14.2883 -14.2873 -14.2863 -14.2847
   -14.2835 -14.2828 -14.2766 -14.2754 -14.2746 -14.2685 -14.2639 -14.2634
   -14.2634 -14.2598 -14.2597 -14.2589 -14.2558 -14.2544 -14.2542 -14.2529
   -14.2502 -14.2485 -14.2463 -14.2453 -14.2393 -14.2292 -14.2251 -14.2166
   -10.5511 -10.5331 -10.5281 -10.5142 -10.5081 -10.4942 -10.4904 -10.4771
    -9.7027  -9.6468  -9.5116  -9.4969  -9.4590  -9.4372  -9.3520  -9.3421
    -9.3167  -9.3055  -9.2808  -9.2733  -9.2430  -9.2251  -9.2011  -9.1915
    -9.1693  -9.1423  -9.1299  -9.1049  -9.0946  -9.0588  -9.0459  -9.0116
    -7.0480  -7.0072  -7.0057  -6.9702  -6.9688  -6.9667  -6.9646  -6.9610
    -6.9389  -6.8881  -6.8801  -6.8168  -6.8099  -6.8054  -6.7972  -6.7843
    -5.8149  -5.6260  -5.3885  -5.3695  -5.2057  -5.1879  -4.9941  -4.9280
    -4.9005  -4.8982  -4.8763  -4.8581  -4.8551  -4.8323  -4.8217  -4.7256
    -2.8659  -2.8361  -2.8194  -2.8018  -2.7967  -2.7902  -2.7834  -2.7793
    -2.7774  -2.7674  -2.7640  -2.7594  -2.7558  -2.7473  -2.7447  -2.7393
    -0.8803  -0.8610  -0.8381  -0.7949  -0.7552  -0.7394  -0.6985  -0.6731
    -0.5158  -0.3950  -0.3922  -0.2548   0.0159   0.1187   0.1303   0.2376
     0.2845   0.3081   0.3539   0.3750   0.4028   0.4207   0.4317   0.4859
     0.4919   0.5475   0.7047   0.7166   0.7341   0.7547   0.8320   0.8525
     0.8671   0.8910   0.8971   0.9340   0.9685   0.9863   1.0001   1.0204
     1.0309   1.0533   1.0692   1.0776   1.0953   1.1089   1.1231   1.1468
     1.1594   1.1790   1.2003   1.2067   1.2246   1.2413   1.2506   1.2736
     1.3063   1.3138   1.3529   1.3748   1.3982   1.4091   1.4384   1.4980
     1.5505   1.5757   1.6045   1.6143   1.6269   1.6406   1.7301   1.8393

          k =-0.1251 0.1260-0.3857 (301332 PWs)   bands (ev):

   -17.6006 -17.5481 -17.5336 -17.4730 -17.4618 -17.4594 -17.4449 -17.4411
   -14.3357 -14.3312 -14.3248 -14.3203 -14.3093 -14.3023 -14.3013 -14.2975
   -14.2966 -14.2954 -14.2940 -14.2910 -14.2883 -14.2873 -14.2863 -14.2847
   -14.2835 -14.2828 -14.2766 -14.2754 -14.2746 -14.2685 -14.2639 -14.2634
   -14.2634 -14.2598 -14.2597 -14.2589 -14.2558 -14.2544 -14.2542 -14.2529
   -14.2502 -14.2485 -14.2463 -14.2453 -14.2393 -14.2292 -14.2251 -14.2166
   -10.5512 -10.5328 -10.5288 -10.5146 -10.5084 -10.4933 -10.4903 -10.4767
    -9.7065  -9.6473  -9.5061  -9.4868  -9.4581  -9.4384  -9.3630  -9.3453
    -9.3189  -9.3094  -9.2820  -9.2689  -9.2390  -9.2284  -9.2018  -9.1901
    -9.1642  -9.1430  -9.1315  -9.1047  -9.0945  -9.0590  -9.0453  -9.0110
    -7.0481  -7.0072  -7.0057  -6.9695  -6.9686  -6.9670  -6.9650  -6.9614
    -6.9390  -6.8881  -6.8801  -6.8168  -6.8098  -6.8054  -6.7972  -6.7842
    -5.8146  -5.6245  -5.3864  -5.3732  -5.2056  -5.1928  -4.9918  -4.9245
    -4.9009  -4.8986  -4.8759  -4.8600  -4.8535  -4.8305  -4.8209  -4.7285
    -2.8661  -2.8362  -2.8193  -2.8016  -2.7970  -2.7894  -2.7842  -2.7808
    -2.7778  -2.7668  -2.7646  -2.7597  -2.7549  -2.7486  -2.7435  -2.7381
    -0.9192  -0.8646  -0.8279  -0.7730  -0.7559  -0.7198  -0.7014  -0.6600
    -0.5252  -0.3925  -0.3886  -0.2576   0.0126   0.1192   0.1293   0.2324
     0.2783   0.3081   0.3522   0.3688   0.4035   0.4187   0.4337   0.4651
     0.4935   0.5666   0.7233   0.7262   0.7363   0.7556   0.7842   0.8165
     0.8856   0.9022   0.9321   0.9423   0.9687   0.9815   0.9954   1.0151
     1.0312   1.0482   1.0587   1.0674   1.0938   1.1128   1.1330   1.1396
     1.1517   1.1786   1.1964   1.2115   1.2285   1.2427   1.2557   1.2951
     1.3101   1.3292   1.3418   1.3715   1.4002   1.4127   1.4289   1.4981
     1.5529   1.5790   1.5889   1.6035   1.6153   1.6282   1.7670   1.8610

          k = 0.1251-0.1260-0.3857 (301332 PWs)   bands (ev):

   -17.6006 -17.5481 -17.5336 -17.4730 -17.4618 -17.4594 -17.4449 -17.4411
   -14.3357 -14.3312 -14.3248 -14.3203 -14.3093 -14.3023 -14.3013 -14.2975
   -14.2966 -14.2954 -14.2940 -14.2910 -14.2883 -14.2873 -14.2863 -14.2847
   -14.2835 -14.2828 -14.2766 -14.2754 -14.2746 -14.2685 -14.2639 -14.2634
   -14.2634 -14.2598 -14.2597 -14.2589 -14.2558 -14.2544 -14.2542 -14.2529
   -14.2502 -14.2485 -14.2463 -14.2453 -14.2393 -14.2292 -14.2251 -14.2166
   -10.5512 -10.5328 -10.5288 -10.5145 -10.5086 -10.4933 -10.4903 -10.4767
    -9.7066  -9.6472  -9.5037  -9.4894  -9.4605  -9.4351  -9.3648  -9.3446
    -9.3172  -9.3099  -9.2821  -9.2696  -9.2404  -9.2273  -9.2051  -9.1808
    -9.1703  -9.1435  -9.1305  -9.1043  -9.0948  -9.0594  -9.0450  -9.0109
    -7.0480  -7.0072  -7.0057  -6.9697  -6.9683  -6.9671  -6.9652  -6.9612
    -6.9391  -6.8881  -6.8801  -6.8168  -6.8098  -6.8053  -6.7971  -6.7843
    -5.8148  -5.6242  -5.3866  -5.3728  -5.2055  -5.1931  -4.9920  -4.9243
    -4.9008  -4.8984  -4.8763  -4.8599  -4.8535  -4.8303  -4.8213  -4.7284
    -2.8654  -2.8360  -2.8198  -2.8027  -2.7968  -2.7898  -2.7844  -2.7822
    -2.7777  -2.7704  -2.7635  -2.7563  -2.7538  -2.7475  -2.7435  -2.7387
    -0.9197  -0.8644  -0.8257  -0.7748  -0.7550  -0.7187  -0.7005  -0.6615
    -0.5259  -0.3950  -0.3884  -0.2593   0.0149   0.1181   0.1321   0.2341
     0.2792   0.3092   0.3499   0.3667   0.4023   0.4192   0.4354   0.4669
     0.4949   0.5665   0.7152   0.7246   0.7314   0.7671   0.7823   0.8159
     0.8846   0.9048   0.9340   0.9425   0.9695   0.9791   0.9989   1.0111
     1.0341   1.0419   1.0581   1.0680   1.0922   1.1129   1.1272   1.1427
     1.1555   1.1848   1.1991   1.2100   1.2209   1.2458   1.2565   1.2964
     1.3141   1.3240   1.3393   1.3744   1.3987   1.4122   1.4306   1.4978
     1.5565   1.5809   1.5856   1.6012   1.6154   1.6282   1.7662   1.8620

          k =-0.1251-0.3780 0.1286 (301322 PWs)   bands (ev):

   -17.6006 -17.5481 -17.5336 -17.4730 -17.4618 -17.4594 -17.4449 -17.4411
   -14.3359 -14.3324 -14.3242 -14.3181 -14.3100 -14.3036 -14.3018 -14.2975
   -14.2968 -14.2960 -14.2940 -14.2907 -14.2873 -14.2872 -14.2863 -14.2850
   -14.2828 -14.2818 -14.2768 -14.2766 -14.2746 -14.2685 -14.2638 -14.2635
   -14.2634 -14.2598 -14.2597 -14.2589 -14.2558 -14.2543 -14.2538 -14.2527
   -14.2502 -14.2485 -14.2463 -14.2453 -14.2393 -14.2292 -14.2251 -14.2166
   -10.5517 -10.5321 -10.5256 -10.5166 -10.5065 -10.4972 -10.4883 -10.4787
    -9.6997  -9.6042  -9.5614  -9.5045  -9.4705  -9.4010  -9.3928  -9.3431
    -9.3276  -9.2990  -9.2734  -9.2561  -9.2401  -9.2196  -9.2110  -9.1883
    -9.1694  -9.1387  -9.1275  -9.1057  -9.0847  -9.0717  -9.0381  -9.0128
    -7.0467  -7.0126  -7.0061  -6.9698  -6.9678  -6.9672  -6.9646  -6.9582
    -6.9373  -6.8866  -6.8822  -6.8216  -6.8139  -6.8072  -6.7949  -6.7805
    -5.8203  -5.6286  -5.3921  -5.3691  -5.2135  -5.1840  -4.9776  -4.9252
    -4.9113  -4.8953  -4.8644  -4.8595  -4.8531  -4.8372  -4.8222  -4.7168
    -2.8585  -2.8449  -2.8125  -2.8031  -2.7995  -2.7919  -2.7881  -2.7805
    -2.7778  -2.7694  -2.7661  -2.7565  -2.7539  -2.7482  -2.7446  -2.7366
    -0.9259  -0.8944  -0.8279  -0.8188  -0.7847  -0.7515  -0.6928  -0.5932
    -0.4927  -0.3959  -0.3511  -0.2495   0.0586   0.1496   0.2208   0.2294
     0.2882   0.3042   0.3193   0.3343   0.3952   0.4258   0.4517   0.4964
     0.5198   0.5749   0.6056   0.6256   0.6985   0.7752   0.8103   0.8225
     0.8519   0.8806   0.8918   0.9306   0.9537   0.9727   0.9852   0.9936
     1.0066   1.0407   1.0526   1.0809   1.0976   1.1096   1.1481   1.1650
     1.1890   1.1940   1.2117   1.2220   1.2381   1.2533   1.2666   1.2817
     1.2960   1.3039   1.3497   1.3773   1.4260   1.4556   1.4757   1.4960
     1.5292   1.5406   1.5634   1.5697   1.5983   1.6285   1.7995   1.8588

          k =-0.1251 0.3780-0.1286 (301322 PWs)   bands (ev):

   -17.6006 -17.5481 -17.5336 -17.4730 -17.4618 -17.4594 -17.4449 -17.4411
   -14.3359 -14.3324 -14.3242 -14.3181 -14.3100 -14.3036 -14.3018 -14.2975
   -14.2968 -14.2960 -14.2940 -14.2907 -14.2873 -14.2871 -14.2863 -14.2850
   -14.2828 -14.2818 -14.2768 -14.2766 -14.2746 -14.2685 -14.2638 -14.2635
   -14.2634 -14.2598 -14.2597 -14.2589 -14.2558 -14.2543 -14.2538 -14.2527
   -14.2502 -14.2485 -14.2463 -14.2453 -14.2393 -14.2292 -14.2251 -14.2166
   -10.5517 -10.5319 -10.5265 -10.5169 -10.5069 -10.4961 -10.4882 -10.4783
    -9.7069  -9.5955  -9.5612  -9.4875  -9.4703  -9.4270  -9.3956  -9.3365
    -9.3274  -9.3031  -9.2701  -9.2512  -9.2396  -9.2238  -9.2126  -9.1850
    -9.1682  -9.1400  -9.1309  -9.1013  -9.0815  -9.0723  -9.0419  -9.0114
    -7.0467  -7.0126  -7.0060  -6.9695  -6.9676  -6.9665  -6.9651  -6.9589
    -6.9376  -6.8866  -6.8822  -6.8216  -6.8142  -6.8068  -6.7949  -6.7804
    -5.8210  -5.6280  -5.3926  -5.3638  -5.2130  -5.1909  -4.9923  -4.9176
    -4.9071  -4.8946  -4.8665  -4.8575  -4.8487  -4.8353  -4.8167  -4.7245
    -2.8588  -2.8450  -2.8122  -2.8037  -2.7994  -2.7926  -2.7881  -2.7806
    -2.7795  -2.7688  -2.7653  -2.7571  -2.7535  -2.7471  -2.7447  -2.7357
    -0.9282  -0.9075  -0.8320  -0.8128  -0.7839  -0.7521  -0.6939  -0.6010
    -0.4777  -0.3736  -0.3316  -0.2323   0.0478   0.1062   0.2050   0.2240
     0.2881   0.3088   0.3209   0.3466   0.3810   0.4041   0.4424   0.4604
     0.5169   0.6045   0.6151   0.6657   0.6948   0.7705   0.8047   0.8321
     0.8526   0.8815   0.9056   0.9501   0.9543   0.9697   0.9878   1.0087
     1.0172   1.0295   1.0592   1.0685   1.0896   1.1099   1.1299   1.1651
     1.1883   1.1979   1.2066   1.2191   1.2337   1.2512   1.2764   1.2852
     1.2960   1.3069   1.3388   1.3660   1.4077   1.4486   1.4811   1.4954
     1.5244   1.5411   1.5640   1.5797   1.6142   1.6412   1.7856   1.8830

          k = 0.1251-0.3780-0.1286 (301322 PWs)   bands (ev):

   -17.6006 -17.5481 -17.5336 -17.4730 -17.4618 -17.4594 -17.4449 -17.4411
   -14.3359 -14.3324 -14.3242 -14.3181 -14.3100 -14.3036 -14.3018 -14.2975
   -14.2968 -14.2960 -14.2940 -14.2907 -14.2873 -14.2871 -14.2863 -14.2850
   -14.2828 -14.2818 -14.2768 -14.2766 -14.2746 -14.2685 -14.2638 -14.2635
   -14.2634 -14.2598 -14.2597 -14.2589 -14.2558 -14.2543 -14.2538 -14.2527
   -14.2502 -14.2485 -14.2463 -14.2453 -14.2393 -14.2292 -14.2251 -14.2166
   -10.5518 -10.5319 -10.5266 -10.5168 -10.5069 -10.4961 -10.4882 -10.4783
    -9.7074  -9.5942  -9.5604  -9.4890  -9.4721  -9.4273  -9.3931  -9.3378
    -9.3261  -9.3021  -9.2726  -9.2501  -9.2407  -9.2234  -9.2119  -9.1854
    -9.1671  -9.1412  -9.1304  -9.1014  -9.0823  -9.0717  -9.0417  -9.0114
    -7.0466  -7.0126  -7.0060  -6.9696  -6.9676  -6.9665  -6.9651  -6.9588
    -6.9376  -6.8866  -6.8822  -6.8216  -6.8142  -6.8068  -6.7949  -6.7805
    -5.8213  -5.6275  -5.3928  -5.3635  -5.2129  -5.1912  -4.9931  -4.9172
    -4.9068  -4.8945  -4.8665  -4.8575  -4.8485  -4.8351  -4.8165  -4.7250
    -2.8579  -2.8450  -2.8135  -2.8042  -2.7987  -2.7930  -2.7893  -2.7826
    -2.7786  -2.7697  -2.7655  -2.7543  -2.7518  -2.7479  -2.7444  -2.7359
    -0.9309  -0.9047  -0.8307  -0.8187  -0.7773  -0.7511  -0.6932  -0.6001
    -0.4815  -0.3779  -0.3328  -0.2327   0.0522   0.1094   0.2089   0.2202
     0.2921   0.3064   0.3219   0.3433   0.3812   0.3989   0.4330   0.4658
     0.5340   0.5951   0.6173   0.6616   0.7000   0.7741   0.8153   0.8301
     0.8528   0.8783   0.9003   0.9470   0.9525   0.9648   0.9841   1.0009
     1.0157   1.0293   1.0603   1.0711   1.0935   1.1127   1.1339   1.1619
     1.1850   1.2016   1.2110   1.2236   1.2364   1.2528   1.2650   1.2725
     1.3012   1.3114   1.3433   1.3610   1.4085   1.4511   1.4802   1.5004
     1.5236   1.5420   1.5667   1.5796   1.6106   1.6409   1.7854   1.8829

          k =-0.1251-0.3780 0.3857 (301355 PWs)   bands (ev):

   -17.6006 -17.5481 -17.5336 -17.4730 -17.4618 -17.4594 -17.4449 -17.4411
   -14.3355 -14.3308 -14.3246 -14.3198 -14.3100 -14.3023 -14.3012 -14.2975
   -14.2965 -14.2960 -14.2940 -14.2899 -14.2884 -14.2873 -14.2863 -14.2850
   -14.2837 -14.2828 -14.2766 -14.2759 -14.2746 -14.2685 -14.2638 -14.2637
   -14.2634 -14.2598 -14.2597 -14.2589 -14.2559 -14.2545 -14.2543 -14.2529
   -14.2502 -14.2485 -14.2463 -14.2453 -14.2393 -14.2292 -14.2251 -14.2166
   -10.5506 -10.5327 -10.5257 -10.5144 -10.5087 -10.4965 -10.4887 -10.4793
    -9.6680  -9.6164  -9.5755  -9.5226  -9.4730  -9.4254  -9.3832  -9.3537
    -9.3357  -9.3198  -9.2522  -9.2484  -9.2405  -9.1974  -9.1888  -9.1631
    -9.1536  -9.1377  -9.1200  -9.1066  -9.0980  -9.0697  -9.0601  -9.0327
    -7.0482  -7.0071  -7.0056  -6.9700  -6.9685  -6.9664  -6.9646  -6.9616
    -6.9389  -6.8879  -6.8800  -6.8168  -6.8100  -6.8054  -6.7972  -6.7846
    -5.6995  -5.5183  -5.5075  -5.3281  -5.2795  -5.1141  -5.1039  -4.9799
    -4.9078  -4.8970  -4.8772  -4.8556  -4.8536  -4.8396  -4.8292  -4.7994
    -2.8581  -2.8451  -2.8168  -2.8037  -2.7968  -2.7894  -2.7855  -2.7792
    -2.7776  -2.7678  -2.7646  -2.7584  -2.7513  -2.7477  -2.7450  -2.7399
    -0.8713  -0.8194  -0.7811  -0.7297  -0.5862  -0.4746  -0.4664  -0.4266
    -0.3550  -0.3253  -0.2947  -0.2638   0.0201   0.0724   0.1068   0.1385
     0.1954   0.2267   0.2400   0.3064   0.3429   0.3576   0.3982   0.4030
     0.4761   0.5120   0.5602   0.5942   0.6550   0.7154   0.7364   0.7935
     0.8156   0.8352   0.8670   0.9175   0.9302   0.9480   0.9686   0.9839
     1.0132   1.0319   1.0378   1.0459   1.0725   1.0912   1.1217   1.1289
     1.1755   1.1958   1.2125   1.2244   1.2482   1.2507   1.2822   1.3034
     1.3314   1.3476   1.3744   1.3851   1.4044   1.4240   1.4457   1.4602
     1.4894   1.5076   1.5355   1.5493   1.5733   1.6037   1.6308   1.6781

          k =-0.1251 0.3780-0.3857 (301355 PWs)   bands (ev):

   -17.6006 -17.5481 -17.5336 -17.4730 -17.4618 -17.4594 -17.4449 -17.4411
   -14.3355 -14.3308 -14.3246 -14.3198 -14.3100 -14.3023 -14.3012 -14.2975
   -14.2964 -14.2960 -14.2940 -14.2899 -14.2884 -14.2873 -14.2863 -14.2850
   -14.2837 -14.2828 -14.2766 -14.2759 -14.2746 -14.2685 -14.2638 -14.2637
   -14.2634 -14.2598 -14.2597 -14.2589 -14.2559 -14.2545 -14.2543 -14.2529
   -14.2502 -14.2485 -14.2463 -14.2453 -14.2393 -14.2292 -14.2251 -14.2166
   -10.5507 -10.5323 -10.5266 -10.5149 -10.5089 -10.4955 -10.4888 -10.4788
    -9.6741  -9.6184  -9.5690  -9.5168  -9.4602  -9.4244  -9.4006  -9.3611
    -9.3334  -9.3215  -9.2524  -9.2460  -9.2360  -9.2005  -9.1903  -9.1603
    -9.1536  -9.1415  -9.1165  -9.1059  -9.0974  -9.0706  -9.0605  -9.0313
    -7.0482  -7.0071  -7.0056  -6.9693  -6.9683  -6.9664  -6.9655  -6.9618
    -6.9391  -6.8879  -6.8800  -6.8168  -6.8100  -6.8055  -6.7973  -6.7845
    -5.6986  -5.5171  -5.5064  -5.3318  -5.2822  -5.1134  -5.1082  -4.9675
    -4.9086  -4.8976  -4.8800  -4.8564  -4.8530  -4.8384  -4.8278  -4.8028
    -2.8584  -2.8452  -2.8167  -2.8041  -2.7956  -2.7889  -2.7855  -2.7822
    -2.7775  -2.7684  -2.7640  -2.7579  -2.7524  -2.7481  -2.7434  -2.7389
    -0.8839  -0.8294  -0.7776  -0.7284  -0.5760  -0.4649  -0.4566  -0.4150
    -0.3616  -0.3231  -0.2805  -0.2497   0.0053   0.0517   0.0995   0.1274
     0.1813   0.2109   0.2487   0.3102   0.3295   0.3545   0.3999   0.4103
     0.4652   0.5227   0.5765   0.6011   0.6459   0.7146   0.7382   0.7787
     0.8299   0.8613   0.8817   0.9120   0.9342   0.9515   0.9707   0.9860
     0.9972   1.0070   1.0188   1.0468   1.0573   1.1024   1.1122   1.1570
     1.1717   1.1974   1.2199   1.2340   1.2519   1.2647   1.2744   1.3016
     1.3422   1.3520   1.3679   1.3922   1.4016   1.4148   1.4382   1.4613
     1.4788   1.4909   1.5202   1.5331   1.5772   1.6093   1.6531   1.7103

          k = 0.1251-0.3780-0.3857 (301355 PWs)   bands (ev):

   -17.6006 -17.5481 -17.5336 -17.4730 -17.4618 -17.4594 -17.4449 -17.4411
   -14.3355 -14.3308 -14.3246 -14.3198 -14.3100 -14.3023 -14.3012 -14.2975
   -14.2964 -14.2960 -14.2940 -14.2899 -14.2884 -14.2873 -14.2863 -14.2850
   -14.2837 -14.2828 -14.2766 -14.2759 -14.2746 -14.2685 -14.2638 -14.2637
   -14.2634 -14.2598 -14.2597 -14.2589 -14.2559 -14.2545 -14.2543 -14.2529
   -14.2502 -14.2485 -14.2463 -14.2453 -14.2393 -14.2292 -14.2251 -14.2166
   -10.5507 -10.5324 -10.5266 -10.5147 -10.5091 -10.4955 -10.4887 -10.4788
    -9.6755  -9.6169  -9.5655  -9.5211  -9.4632  -9.4192  -9.4016  -9.3601
    -9.3345  -9.3221  -9.2520  -9.2461  -9.2353  -9.2009  -9.1928  -9.1572
    -9.1539  -9.1392  -9.1186  -9.1085  -9.0964  -9.0702  -9.0600  -9.0314
    -7.0482  -7.0071  -7.0056  -6.9695  -6.9681  -6.9665  -6.9655  -6.9617
    -6.9391  -6.8879  -6.8800  -6.8168  -6.8100  -6.8054  -6.7972  -6.7846
    -5.6993  -5.5123  -5.5095  -5.3327  -5.2824  -5.1136  -5.1086  -4.9662
    -4.9086  -4.8976  -4.8803  -4.8562  -4.8528  -4.8382  -4.8284  -4.8030
    -2.8574  -2.8453  -2.8176  -2.8048  -2.7954  -2.7893  -2.7862  -2.7826
    -2.7776  -2.7694  -2.7649  -2.7558  -2.7512  -2.7469  -2.7440  -2.7388
    -0.8838  -0.8305  -0.7792  -0.7276  -0.5639  -0.4629  -0.4448  -0.4218
    -0.3723  -0.3318  -0.2786  -0.2688   0.0097   0.0660   0.1127   0.1293
     0.1833   0.2195   0.2363   0.2989   0.3273   0.3612   0.3989   0.4069
     0.4610   0.5262   0.5846   0.5968   0.6468   0.7169   0.7351   0.7749
     0.8258   0.8608   0.8784   0.9190   0.9318   0.9576   0.9690   0.9842
     0.9954   1.0044   1.0217   1.0430   1.0552   1.1012   1.1187   1.1512
     1.1729   1.2052   1.2228   1.2366   1.2525   1.2618   1.2756   1.2926
     1.3342   1.3518   1.3738   1.3830   1.4106   1.4161   1.4445   1.4612
     1.4704   1.5007   1.5218   1.5322   1.5739   1.6116   1.6507   1.7097

          k =-0.3753-0.1260 0.1286 (301347 PWs)   bands (ev):

   -17.6006 -17.5481 -17.5336 -17.4730 -17.4618 -17.4594 -17.4448 -17.4411
   -14.3356 -14.3329 -14.3240 -14.3185 -14.3090 -14.3033 -14.3024 -14.2976
   -14.2974 -14.2951 -14.2940 -14.2918 -14.2873 -14.2867 -14.2863 -14.2853
   -14.2828 -14.2820 -14.2766 -14.2763 -14.2746 -14.2685 -14.2638 -14.2637
   -14.2634 -14.2598 -14.2597 -14.2589 -14.2558 -14.2543 -14.2536 -14.2527
   -14.2502 -14.2485 -14.2463 -14.2453 -14.2393 -14.2292 -14.2251 -14.2166
   -10.5522 -10.5315 -10.5286 -10.5141 -10.5048 -10.4977 -10.4899 -10.4777
    -9.6989  -9.6031  -9.5590  -9.5133  -9.4728  -9.4190  -9.3893  -9.3432
    -9.3180  -9.2922  -9.2737  -9.2423  -9.2299  -9.2165  -9.1949  -9.1807
    -9.1670  -9.1556  -9.1402  -9.1261  -9.0809  -9.0729  -9.0609  -8.9904
    -7.0466  -7.0127  -7.0060  -6.9695  -6.9682  -6.9665  -6.9650  -6.9578
    -6.9375  -6.8873  -6.8826  -6.8211  -6.8139  -6.8064  -6.7941  -6.7812
    -5.8249  -5.6368  -5.3826  -5.3727  -5.2097  -5.1912  -4.9695  -4.9273
    -4.9110  -4.8884  -4.8714  -4.8574  -4.8513  -4.8363  -4.8226  -4.7138
    -2.8644  -2.8359  -2.8111  -2.8049  -2.7956  -2.7906  -2.7879  -2.7829
    -2.7797  -2.7752  -2.7696  -2.7609  -2.7528  -2.7450  -2.7412  -2.7346
    -0.9300  -0.8771  -0.8251  -0.8087  -0.7726  -0.7186  -0.6819  -0.6114
    -0.5058  -0.4159  -0.3586  -0.2709   0.0559   0.1408   0.2226   0.2392
     0.2749   0.3003   0.3196   0.3259   0.3886   0.4138   0.4418   0.4890
     0.5021   0.5654   0.6163   0.6361   0.7060   0.7570   0.7726   0.8154
     0.8465   0.8548   0.8922   0.9429   0.9510   0.9698   0.9852   1.0114
     1.0298   1.0538   1.0577   1.0744   1.0978   1.1248   1.1443   1.1540
     1.1841   1.2021   1.2144   1.2280   1.2362   1.2514   1.2746   1.2845
     1.2994   1.3042   1.3242   1.3801   1.4174   1.4592   1.4833   1.5078
     1.5225   1.5549   1.5597   1.5883   1.6085   1.6240   1.8326   1.8864

          k =-0.3753 0.1260-0.1286 (301347 PWs)   bands (ev):

   -17.6006 -17.5481 -17.5336 -17.4730 -17.4618 -17.4594 -17.4448 -17.4411
   -14.3356 -14.3329 -14.3240 -14.3185 -14.3090 -14.3033 -14.3024 -14.2976
   -14.2974 -14.2951 -14.2940 -14.2918 -14.2873 -14.2867 -14.2863 -14.2853
   -14.2828 -14.2820 -14.2766 -14.2763 -14.2746 -14.2685 -14.2638 -14.2637
   -14.2634 -14.2598 -14.2597 -14.2589 -14.2558 -14.2543 -14.2536 -14.2527
   -14.2502 -14.2485 -14.2463 -14.2453 -14.2393 -14.2292 -14.2251 -14.2166
   -10.5522 -10.5305 -10.5301 -10.5148 -10.5054 -10.4963 -10.4898 -10.4773
    -9.7067  -9.5926  -9.5582  -9.4989  -9.4747  -9.4404  -9.3884  -9.3442
    -9.3156  -9.2920  -9.2730  -9.2437  -9.2325  -9.2149  -9.1904  -9.1793
    -9.1726  -9.1552  -9.1394  -9.1215  -9.0809  -9.0742  -9.0615  -8.9901
    -7.0466  -7.0127  -7.0060  -6.9692  -6.9677  -6.9666  -6.9649  -6.9586
    -6.9377  -6.8873  -6.8826  -6.8212  -6.8141  -6.8061  -6.7942  -6.7812
    -5.8257  -5.6360  -5.3830  -5.3676  -5.2092  -5.1979  -4.9856  -4.9197
    -4.9081  -4.8860  -4.8706  -4.8564  -4.8486  -4.8337  -4.8165  -4.7220
    -2.8647  -2.8359  -2.8107  -2.8041  -2.7986  -2.7905  -2.7865  -2.7841
    -2.7799  -2.7761  -2.7694  -2.7602  -2.7516  -2.7449  -2.7409  -2.7342
    -0.9352  -0.8860  -0.8250  -0.8108  -0.7714  -0.7179  -0.6833  -0.6198
    -0.4877  -0.3983  -0.3347  -0.2562   0.0455   0.1030   0.2026   0.2287
     0.2732   0.2993   0.3273   0.3427   0.3729   0.3991   0.4202   0.4586
     0.5154   0.5818   0.6254   0.6767   0.7016   0.7449   0.7809   0.8301
     0.8506   0.8740   0.9090   0.9333   0.9524   0.9575   0.9893   1.0079
     1.0296   1.0460   1.0625   1.0830   1.0949   1.1105   1.1397   1.1682
     1.1841   1.1972   1.2110   1.2243   1.2392   1.2528   1.2717   1.2787
     1.2899   1.3017   1.3357   1.3628   1.4170   1.4420   1.4829   1.5026
     1.5412   1.5467   1.5589   1.5959   1.6105   1.6500   1.8192   1.9087

          k = 0.3753-0.1260-0.1286 (301347 PWs)   bands (ev):

   -17.6006 -17.5481 -17.5336 -17.4730 -17.4618 -17.4594 -17.4448 -17.4411
   -14.3356 -14.3329 -14.3240 -14.3185 -14.3090 -14.3033 -14.3024 -14.2976
   -14.2974 -14.2951 -14.2940 -14.2918 -14.2873 -14.2867 -14.2863 -14.2853
   -14.2828 -14.2820 -14.2766 -14.2763 -14.2746 -14.2685 -14.2638 -14.2637
   -14.2634 -14.2598 -14.2597 -14.2589 -14.2558 -14.2543 -14.2536 -14.2527
   -14.2502 -14.2485 -14.2463 -14.2453 -14.2393 -14.2292 -14.2251 -14.2166
   -10.5523 -10.5306 -10.5301 -10.5146 -10.5055 -10.4963 -10.4897 -10.4773
    -9.7063  -9.5940  -9.5588  -9.4976  -9.4724  -9.4404  -9.3914  -9.3448
    -9.3141  -9.2873  -9.2775  -9.2431  -9.2344  -9.2143  -9.1918  -9.1761
    -9.1713  -9.1577  -9.1404  -9.1204  -9.0814  -9.0737  -9.0618  -8.9900
    -7.0466  -7.0127  -7.0060  -6.9692  -6.9678  -6.9666  -6.9649  -6.9586
    -6.9378  -6.8873  -6.8826  -6.8211  -6.8141  -6.8061  -6.7941  -6.7813
    -5.8257  -5.6362  -5.3826  -5.3678  -5.2090  -5.1980  -4.9849  -4.9200
    -4.9081  -4.8863  -4.8709  -4.8565  -4.8485  -4.8339  -4.8170  -4.7213
    -2.8640  -2.8356  -2.8120  -2.8060  -2.7979  -2.7900  -2.7878  -2.7841
    -2.7798  -2.7771  -2.7682  -2.7597  -2.7522  -2.7441  -2.7405  -2.7336
    -0.9254  -0.8976  -0.8216  -0.8043  -0.7803  -0.7197  -0.6846  -0.6201
    -0.4846  -0.3958  -0.3348  -0.2567   0.0431   0.1010   0.2084   0.2288
     0.2752   0.2972   0.3264   0.3425   0.3733   0.4040   0.4287   0.4526
     0.4995   0.5927   0.6229   0.6828   0.6975   0.7460   0.7680   0.8206
     0.8517   0.8762   0.9092   0.9386   0.9553   0.9641   0.9950   1.0208
     1.0281   1.0406   1.0628   1.0808   1.0897   1.1057   1.1300   1.1676
     1.1831   1.1981   1.2139   1.2313   1.2402   1.2499   1.2702   1.2794
     1.2943   1.3092   1.3283   1.3671   1.4152   1.4388   1.4786   1.5080
     1.5333   1.5553   1.5585   1.5989   1.6099   1.6475   1.8170   1.9086

          k =-0.3753-0.1260 0.3857 (301352 PWs)   bands (ev):

   -17.6006 -17.5481 -17.5336 -17.4730 -17.4618 -17.4594 -17.4448 -17.4411
   -14.3353 -14.3312 -14.3242 -14.3203 -14.3090 -14.3020 -14.3017 -14.2975
   -14.2971 -14.2951 -14.2940 -14.2911 -14.2880 -14.2873 -14.2863 -14.2851
   -14.2838 -14.2828 -14.2766 -14.2754 -14.2746 -14.2685 -14.2639 -14.2638
   -14.2634 -14.2598 -14.2597 -14.2589 -14.2558 -14.2544 -14.2542 -14.2529
   -14.2502 -14.2485 -14.2463 -14.2453 -14.2393 -14.2292 -14.2251 -14.2166
   -10.5508 -10.5323 -10.5285 -10.5131 -10.5058 -10.4972 -10.4905 -10.4782
    -9.6668  -9.6148  -9.5737  -9.5222  -9.4834  -9.4349  -9.4020  -9.3677
    -9.3033  -9.2949  -9.2628  -9.2338  -9.2128  -9.1924  -9.1836  -9.1742
    -9.1552  -9.1499  -9.1380  -9.1161  -9.1027  -9.0842  -9.0575  -9.0151
    -7.0481  -7.0072  -7.0056  -6.9698  -6.9677  -6.9666  -6.9651  -6.9614
    -6.9389  -6.8882  -6.8802  -6.8168  -6.8099  -6.8052  -6.7972  -6.7846
    -5.7040  -5.5199  -5.5175  -5.3361  -5.2699  -5.1097  -5.0956  -4.9770
    -4.9077  -4.8935  -4.8818  -4.8546  -4.8505  -4.8409  -4.8297  -4.7985
    -2.8638  -2.8357  -2.8118  -2.8039  -2.7963  -2.7910  -2.7833  -2.7779
    -2.7744  -2.7706  -2.7652  -2.7618  -2.7597  -2.7475  -2.7452  -2.7397
    -0.8651  -0.8067  -0.7610  -0.6967  -0.5811  -0.4839  -0.4619  -0.4358
    -0.3780  -0.3417  -0.3070  -0.2656   0.0173   0.0689   0.0969   0.1451
     0.1814   0.2084   0.2269   0.2950   0.3546   0.3606   0.3942   0.4091
     0.4895   0.5392   0.5672   0.6100   0.6350   0.6816   0.6923   0.7570
     0.7774   0.8264   0.8528   0.8780   0.8960   0.9527   0.9715   0.9971
     1.0127   1.0350   1.0441   1.0637   1.0832   1.1253   1.1306   1.1605
     1.1877   1.2082   1.2223   1.2325   1.2539   1.2624   1.2924   1.3044
     1.3146   1.3327   1.3573   1.3880   1.4090   1.4265   1.4451   1.4758
     1.4901   1.5166   1.5399   1.5619   1.5824   1.6103   1.6466   1.6983

          k =-0.3753 0.1260-0.3857 (301352 PWs)   bands (ev):

   -17.6006 -17.5481 -17.5336 -17.4730 -17.4618 -17.4594 -17.4448 -17.4411
   -14.3353 -14.3312 -14.3242 -14.3203 -14.3090 -14.3020 -14.3018 -14.2975
   -14.2971 -14.2951 -14.2940 -14.2911 -14.2880 -14.2873 -14.2863 -14.2851
   -14.2838 -14.2828 -14.2766 -14.2754 -14.2746 -14.2685 -14.2639 -14.2638
   -14.2634 -14.2598 -14.2597 -14.2589 -14.2558 -14.2544 -14.2542 -14.2529
   -14.2502 -14.2485 -14.2463 -14.2453 -14.2393 -14.2292 -14.2251 -14.2166
   -10.5509 -10.5318 -10.5295 -10.5136 -10.5064 -10.4959 -10.4904 -10.4778
    -9.6743  -9.6154  -9.5639  -9.5201  -9.4748  -9.4289  -9.4155  -9.3775
    -9.3024  -9.2934  -9.2629  -9.2350  -9.2122  -9.1971  -9.1815  -9.1698
    -9.1610  -9.1454  -9.1364  -9.1159  -9.1042  -9.0834  -9.0571  -9.0145
    -7.0481  -7.0072  -7.0056  -6.9690  -6.9675  -6.9668  -6.9657  -6.9617
    -6.9391  -6.8882  -6.8802  -6.8168  -6.8099  -6.8053  -6.7972  -6.7845
    -5.7033  -5.5199  -5.5146  -5.3398  -5.2731  -5.1083  -5.1012  -4.9635
    -4.9086  -4.8920  -4.8861  -4.8556  -4.8498  -4.8398  -4.8282  -4.8027
    -2.8641  -2.8358  -2.8120  -2.8017  -2.7985  -2.7893  -2.7849  -2.7786
    -2.7756  -2.7706  -2.7655  -2.7617  -2.7587  -2.7486  -2.7441  -2.7386
    -0.8762  -0.8161  -0.7632  -0.7001  -0.5565  -0.4702  -0.4484  -0.4223
    -0.3912  -0.3410  -0.2996  -0.2596   0.0059   0.0510   0.1032   0.1290
     0.1597   0.2052   0.2226   0.2850   0.3519   0.3588   0.4010   0.4152
     0.4739   0.5550   0.5928   0.6158   0.6322   0.6752   0.6904   0.7527
     0.7783   0.8351   0.8519   0.8954   0.9117   0.9558   0.9640   0.9763
     1.0010   1.0135   1.0460   1.0627   1.0806   1.1280   1.1365   1.1663
     1.1917   1.2081   1.2281   1.2438   1.2636   1.2655   1.2763   1.3070
     1.3229   1.3344   1.3462   1.3940   1.4080   1.4253   1.4525   1.4728
     1.4823   1.5040   1.5237   1.5478   1.5709   1.6319   1.6590   1.7277

          k = 0.3753-0.1260-0.3857 (301352 PWs)   bands (ev):

   -17.6006 -17.5481 -17.5336 -17.4730 -17.4618 -17.4594 -17.4448 -17.4411
   -14.3353 -14.3312 -14.3242 -14.3203 -14.3090 -14.3020 -14.3018 -14.2975
   -14.2971 -14.2951 -14.2940 -14.2911 -14.2880 -14.2873 -14.2863 -14.2851
   -14.2838 -14.2828 -14.2766 -14.2754 -14.2746 -14.2685 -14.2639 -14.2638
   -14.2634 -14.2598 -14.2597 -14.2589 -14.2558 -14.2544 -14.2542 -14.2529
   -14.2502 -14.2485 -14.2463 -14.2453 -14.2393 -14.2292 -14.2251 -14.2166
   -10.5509 -10.5318 -10.5295 -10.5134 -10.5066 -10.4959 -10.4904 -10.4778
    -9.6732  -9.6169  -9.5670  -9.5157  -9.4722  -9.4324  -9.4161  -9.3773
    -9.3005  -9.2931  -9.2655  -9.2337  -9.2139  -9.1938  -9.1844  -9.1706
    -9.1576  -9.1466  -9.1373  -9.1141  -9.1044  -9.0850  -9.0567  -9.0143
    -7.0481  -7.0072  -7.0056  -6.9690  -6.9678  -6.9667  -6.9657  -6.9617
    -6.9391  -6.8882  -6.8802  -6.8168  -6.8099  -6.8052  -6.7972  -6.7846
    -5.7033  -5.5205  -5.5145  -5.3395  -5.2725  -5.1061  -5.1031  -4.9645
    -4.9085  -4.8925  -4.8863  -4.8557  -4.8497  -4.8397  -4.8285  -4.8017
    -2.8633  -2.8355  -2.8127  -2.8047  -2.7968  -2.7900  -2.7831  -2.7804
    -2.7772  -2.7726  -2.7654  -2.7590  -2.7569  -2.7477  -2.7441  -2.7388
    -0.8744  -0.8158  -0.7598  -0.7017  -0.5706  -0.4696  -0.4530  -0.4218
    -0.3821  -0.3381  -0.2936  -0.2593   0.0029   0.0528   0.0959   0.1338
     0.1580   0.2041   0.2271   0.2857   0.3513   0.3549   0.4054   0.4136
     0.4799   0.5495   0.5836   0.6089   0.6387   0.6740   0.6937   0.7527
     0.7816   0.8326   0.8539   0.8963   0.9154   0.9579   0.9634   0.9749
     0.9997   1.0182   1.0389   1.0702   1.0772   1.1270   1.1295   1.1729
     1.1889   1.2142   1.2311   1.2407   1.2549   1.2665   1.2772   1.3117
     1.3211   1.3337   1.3517   1.3902   1.4105   1.4285   1.4448   1.4718
     1.4847   1.4997   1.5277   1.5496   1.5737   1.6272   1.6579   1.7287

          k =-0.3753-0.3780 0.1286 (301311 PWs)   bands (ev):

   -17.6006 -17.5481 -17.5336 -17.4730 -17.4618 -17.4594 -17.4448 -17.4411
   -14.3355 -14.3324 -14.3236 -14.3181 -14.3097 -14.3033 -14.3023 -14.2976
   -14.2972 -14.2957 -14.2941 -14.2908 -14.2873 -14.2868 -14.2863 -14.2857
   -14.2828 -14.2818 -14.2768 -14.2766 -14.2746 -14.2685 -14.2640 -14.2638
   -14.2634 -14.2598 -14.2597 -14.2589 -14.2558 -14.2544 -14.2538 -14.2527
   -14.2502 -14.2485 -14.2463 -14.2453 -14.2393 -14.2292 -14.2251 -14.2166
   -10.5515 -10.5313 -10.5273 -10.5152 -10.5060 -10.4982 -10.4883 -10.4789
    -9.6645  -9.5897  -9.5693  -9.5335  -9.4657  -9.4602  -9.4426  -9.3756
    -9.3146  -9.2615  -9.2504  -9.2272  -9.2169  -9.2025  -9.1847  -9.1783
    -9.1542  -9.1428  -9.1395  -9.1151  -9.0952  -9.0848  -9.0574  -9.0140
    -7.0467  -7.0126  -7.0061  -6.9702  -6.9677  -6.9669  -6.9644  -6.9574
    -6.9372  -6.8868  -6.8823  -6.8211  -6.8139  -6.8071  -6.7948  -6.7817
    -5.7097  -5.5391  -5.5070  -5.3443  -5.2710  -5.0998  -5.0714  -4.9838
    -4.9140  -4.8935  -4.8766  -4.8574  -4.8512  -4.8382  -4.8277  -4.7900
    -2.8564  -2.8430  -2.8076  -2.8014  -2.7929  -2.7898  -2.7877  -2.7805
    -2.7756  -2.7735  -2.7691  -2.7628  -2.7574  -2.7501  -2.7447  -2.7397
    -0.9014  -0.7965  -0.7821  -0.6991  -0.5581  -0.5129  -0.4709  -0.3997
    -0.3712  -0.3569  -0.3089  -0.2654   0.0348   0.1046   0.1369   0.1855
     0.2219   0.2510   0.2757   0.2880   0.3069   0.3369   0.3585   0.3894
[...]
   -14.2516 -14.2495 -14.2456 -14.2421 -14.2420 -14.2389 -14.2383 -14.2362
   -14.2352 -14.2334 -14.2312 -14.2299 -14.2297 -14.2279 -14.2271 -14.2270
   -14.2269 -14.2257 -14.2209 -14.2180 -14.2178 -14.2085 -14.2070 -14.1976
   -10.4742 -10.4687 -10.4589 -10.4519 -10.4484 -10.4323 -10.4310 -10.4124
    -9.6015  -9.5396  -9.5035  -9.4872  -9.4534  -9.4409  -9.4325  -9.3839
    -9.2417  -9.2200  -9.1965  -9.1835  -9.1674  -9.1543  -9.1450  -9.1334
    -9.1233  -9.1058  -9.0896  -9.0828  -9.0719  -9.0540  -9.0375  -9.0059
    -6.9908  -6.9582  -6.9451  -6.9405  -6.9303  -6.9298  -6.9266  -6.9069
    -6.8920  -6.8600  -6.8128  -6.7739  -6.7726  -6.7676  -6.7540  -6.7523
    -5.5469  -5.3806  -5.3697  -5.3622  -5.2102  -5.2037  -5.1964  -5.0317
    -4.8418  -4.8321  -4.8193  -4.7987  -4.7887  -4.7834  -4.7753  -4.7607
    -2.7888  -2.7726  -2.7650  -2.7504  -2.7466  -2.7404  -2.7372  -2.7300
    -2.7267  -2.7199  -2.7158  -2.7052  -2.6987  -2.6926  -2.6883  -2.6835
    -0.6148  -0.5413  -0.4796  -0.4466  -0.4071  -0.3591  -0.3393  -0.3258
    -0.2829  -0.2623  -0.1985  -0.1674  -0.0024   0.0258   0.0697   0.0806
     0.1318   0.2103   0.2212   0.2324   0.3085   0.3247   0.3391   0.3622
     0.5561   0.6204   0.6292   0.6695   0.6945   0.7116   0.7343   0.7533
     0.7665   0.8173   0.8349   0.8535   0.8874   0.9013   0.9077   0.9346
     0.9627   0.9781   0.9839   1.0041   1.0298   1.0558   1.1004   1.1271
     1.2492   1.2718   1.2828   1.2962   1.3078   1.3192   1.3346   1.3770
     1.3971   1.4157   1.4247   1.4311   1.4493   1.4611   1.4642   1.4808
     1.5074   1.5154   1.5252   1.5280   1.5503   1.5781   1.6289   1.6543

          k = 0.3749-0.3791-0.3872 (301429 PWs)   bands (ev):

   -17.5442 -17.4752 -17.4668 -17.4215 -17.4170 -17.4034 -17.4021 -17.3886
   -14.2929 -14.2897 -14.2876 -14.2846 -14.2752 -14.2715 -14.2676 -14.2673
   -14.2651 -14.2650 -14.2611 -14.2595 -14.2556 -14.2555 -14.2553 -14.2531
   -14.2516 -14.2495 -14.2456 -14.2421 -14.2420 -14.2389 -14.2383 -14.2362
   -14.2352 -14.2334 -14.2312 -14.2299 -14.2297 -14.2279 -14.2271 -14.2270
   -14.2269 -14.2257 -14.2209 -14.2180 -14.2178 -14.2085 -14.2070 -14.1976
   -10.4743 -10.4686 -10.4589 -10.4518 -10.4486 -10.4323 -10.4309 -10.4124
    -9.6015  -9.5401  -9.5041  -9.4862  -9.4514  -9.4402  -9.4357  -9.3832
    -9.2449  -9.2120  -9.2016  -9.1844  -9.1682  -9.1536  -9.1433  -9.1356
    -9.1205  -9.1048  -9.0913  -9.0860  -9.0692  -9.0552  -9.0365  -9.0059
    -6.9908  -6.9582  -6.9452  -6.9405  -6.9303  -6.9298  -6.9264  -6.9069
    -6.8922  -6.8599  -6.8129  -6.7739  -6.7725  -6.7676  -6.7540  -6.7523
    -5.5473  -5.3810  -5.3691  -5.3617  -5.2101  -5.2021  -5.1985  -5.0316
    -4.8418  -4.8322  -4.8193  -4.7986  -4.7887  -4.7834  -4.7755  -4.7605
    -2.7896  -2.7735  -2.7638  -2.7503  -2.7458  -2.7426  -2.7342  -2.7301
    -2.7284  -2.7203  -2.7168  -2.7034  -2.6983  -2.6917  -2.6893  -2.6836
    -0.6080  -0.5462  -0.4783  -0.4513  -0.4084  -0.3604  -0.3392  -0.3203
    -0.2798  -0.2739  -0.1967  -0.1698   0.0069   0.0317   0.0665   0.0849
     0.1309   0.2112   0.2221   0.2283   0.3121   0.3240   0.3311   0.3613
     0.5588   0.6175   0.6302   0.6696   0.6943   0.7104   0.7320   0.7489
     0.7724   0.8091   0.8395   0.8556   0.8894   0.9058   0.9101   0.9321
     0.9571   0.9757   0.9892   1.0061   1.0300   1.0529   1.1021   1.1284
     1.2453   1.2729   1.2817   1.2988   1.3039   1.3206   1.3468   1.3631
     1.3944   1.4182   1.4281   1.4348   1.4466   1.4529   1.4642   1.4848
     1.5067   1.5174   1.5209   1.5356   1.5522   1.5772   1.6270   1.6541

     highest occupied level (ev):     2.0749

!    total energy              =  -16491.15470157 Ry
     Harris-Foulkes estimate   =  -16491.15470157 Ry
     estimated scf accuracy    <          4.7E-10 Ry

     total all-electron energy =   -677247.823966 Ry

     The total energy is the sum of the following terms:

     one-electron contribution =    -825.12502872 Ry
     hartree contribution      =     598.54420786 Ry
     xc contribution           =    -755.73893145 Ry
     ewald contribution        =   -1154.00539881 Ry
     DFT-D3 Dispersion         =      -0.62616681 Ry
     one-center paw contrib.   =  -14354.20338364 Ry

     convergence has been achieved in   9 iterations

     Forces acting on atoms (cartesian axes, Ry/au):

     atom    1 type  1   force =    -0.00001372    0.00013792   -0.00011297
     atom    2 type  1   force =    -0.00018393    0.00043665    0.00013005
     atom    3 type  1   force =     0.00004853    0.00009705    0.00042850
     atom    4 type  1   force =    -0.00006129   -0.00039746   -0.00020188
     atom    5 type  1   force =     0.00023114   -0.00004361   -0.00028874
     atom    6 type  1   force =     0.00046200   -0.00033397    0.00040884
     atom    7 type  1   force =     0.00029822    0.00026460   -0.00001420
     atom    8 type  1   force =     0.00004749    0.00075217    0.00013286
     atom    9 type  2   force =    -0.00008184   -0.00019110    0.00013411
     atom   10 type  2   force =     0.00054209   -0.00036458   -0.00030140
     atom   11 type  2   force =    -0.00038182    0.00072506   -0.00022729
     atom   12 type  2   force =     0.00003860   -0.00032615   -0.00023418
     atom   13 type  2   force =     0.00083982    0.00006074    0.00019086
     atom   14 type  2   force =     0.00092636   -0.00063256    0.00022167
     atom   15 type  2   force =    -0.00021988   -0.00041371   -0.00031136
     atom   16 type  2   force =     0.00024354    0.00055831    0.00015759
     atom   17 type  2   force =     0.00064416   -0.00033795    0.00024188
     atom   18 type  2   force =     0.00046619    0.00066078    0.00025225
     atom   19 type  2   force =    -0.00020652    0.00009409   -0.00025433
     atom   20 type  2   force =    -0.00056570    0.00056788   -0.00025387
     atom   21 type  2   force =    -0.00005635   -0.00015901   -0.00035684
     atom   22 type  2   force =     0.00025214   -0.00037700    0.00035807
     atom   23 type  2   force =     0.00072875   -0.00062203   -0.00028698
     atom   24 type  2   force =     0.00017417    0.00020215    0.00006438
     atom   25 type  2   force =    -0.00001963   -0.00024977    0.00030371
     atom   26 type  2   force =    -0.00084244    0.00102158    0.00032573
     atom   27 type  2   force =     0.00030361   -0.00005366   -0.00021304
     atom   28 type  2   force =    -0.00009176    0.00053174   -0.00004033
     atom   29 type  2   force =     0.00002781   -0.00002736   -0.00039385
     atom   30 type  2   force =    -0.00055441   -0.00019588   -0.00013912
     atom   31 type  2   force =     0.00074461    0.00026345   -0.00027895
     atom   32 type  2   force =     0.00130503   -0.00057586    0.00061376
     atom   33 type  3   force =     0.00019666    0.00050413   -0.00013092
     atom   34 type  3   force =    -0.00089416   -0.00059056    0.00019284
     atom   35 type  3   force =     0.00123764    0.00171017   -0.00073270
     atom   36 type  3   force =    -0.00023379    0.00143816    0.00031854
     atom   37 type  3   force =     0.00003726    0.00027147    0.00060696
     atom   38 type  3   force =     0.00028237    0.00075574   -0.00013159
     atom   39 type  3   force =    -0.00014236    0.00006566    0.00013477
     atom   40 type  3   force =     0.00105445    0.00107923    0.00029034
     atom   41 type  4   force =     0.00060501    0.00132288   -0.00035086
     atom   42 type  4   force =     0.00025308   -0.00027499   -0.00016139
     atom   43 type  4   force =     0.00103408    0.00006673    0.00131393
     atom   44 type  4   force =     0.00032578   -0.00024444   -0.00072296
     atom   45 type  4   force =     0.00102199    0.00056324   -0.00076892
     atom   46 type  4   force =     0.00093285    0.00041077   -0.00004594
     atom   47 type  4   force =     0.00027481    0.00014491   -0.00009504
     atom   48 type  4   force =    -0.00117100   -0.00074562   -0.00028199
     atom   49 type  5   force =     0.00026340   -0.00069085    0.00136537
     atom   50 type  5   force =     0.00032806   -0.00101390   -0.00077414
     atom   51 type  5   force =    -0.00139289    0.00105617   -0.00018645
     atom   52 type  5   force =    -0.00034931   -0.00036007   -0.00009498
     atom   53 type  5   force =    -0.00027848    0.00003496    0.00026763
     atom   54 type  5   force =    -0.00083143   -0.00089432    0.00022023
     atom   55 type  5   force =    -0.00009355    0.00043449    0.00020419
     atom   56 type  5   force =     0.00004903    0.00080613   -0.00001900
     atom   57 type  5   force =     0.00000549    0.00051895   -0.00016562
     atom   58 type  5   force =     0.00085978   -0.00026297    0.00083879
     atom   59 type  5   force =    -0.00064360    0.00050152   -0.00012839
     atom   60 type  5   force =     0.00063265   -0.00049878   -0.00103658
     atom   61 type  5   force =    -0.00074351   -0.00002094    0.00016322
     atom   62 type  5   force =    -0.00047058   -0.00073346    0.00027729
     atom   63 type  5   force =    -0.00084123    0.00009724   -0.00070200
     atom   64 type  5   force =    -0.00018313    0.00035114   -0.00129564
     atom   65 type  5   force =     0.00081472   -0.00212336   -0.00042918
     atom   66 type  5   force =    -0.00111812    0.00058191    0.00166739
     atom   67 type  5   force =    -0.00038544   -0.00045297    0.00003867
     atom   68 type  5   force =    -0.00060773   -0.00050309    0.00041359
     atom   69 type  5   force =    -0.00033636    0.00007516   -0.00034199
     atom   70 type  5   force =    -0.00114910   -0.00023959   -0.00091414
     atom   71 type  5   force =     0.00105140   -0.00034292   -0.00039344
     atom   72 type  5   force =    -0.00059554   -0.00021526    0.00090191
     atom   73 type  5   force =    -0.00057260    0.00045058    0.00139243
     atom   74 type  5   force =     0.00076848   -0.00110894   -0.00004238
     atom   75 type  5   force =    -0.00061170    0.00046781   -0.00067696
     atom   76 type  5   force =    -0.00028268   -0.00021617   -0.00012352
     atom   77 type  5   force =    -0.00074629   -0.00011239   -0.00010604
     atom   78 type  5   force =    -0.00019658   -0.00053020   -0.00027042
     atom   79 type  5   force =     0.00012992   -0.00106108    0.00075509
     atom   80 type  5   force =     0.00031441   -0.00086650   -0.00067122
     atom   81 type  5   force =    -0.00047891    0.00049767    0.00012101
     atom   82 type  5   force =    -0.00002087    0.00006339   -0.00037445
     atom   83 type  5   force =    -0.00025494   -0.00041927    0.00043335
     atom   84 type  5   force =    -0.00114152   -0.00017047   -0.00004754
     atom   85 type  5   force =    -0.00009530   -0.00057200    0.00054323
     atom   86 type  5   force =     0.00047649   -0.00034579    0.00010263
     atom   87 type  5   force =    -0.00013059   -0.00003223    0.00002605
     atom   88 type  5   force =    -0.00011412    0.00023813    0.00000139
     atom   89 type  5   force =    -0.00057129   -0.00029688   -0.00000769
     atom   90 type  5   force =    -0.00030220   -0.00007126   -0.00020101
     atom   91 type  5   force =    -0.00003556   -0.00072447   -0.00119201
     atom   92 type  5   force =    -0.00149709    0.00111937    0.00003559
     atom   93 type  5   force =     0.00041171   -0.00050846    0.00142242
     atom   94 type  5   force =    -0.00037136    0.00069433   -0.00175806
     atom   95 type  5   force =     0.00159928   -0.00087547   -0.00016476
     atom   96 type  5   force =    -0.00012089    0.00072517    0.00143612

     Total force =     0.010247     Total SCF correction =     0.000074


     Computing stress (Cartesian axis) and pressure

          total   stress  (Ry/bohr**3)                   (kbar)     P=    0.06
   0.00000046   0.00000298   0.00000226          0.07      0.44      0.33
   0.00000298  -0.00000033   0.00000001          0.44     -0.05      0.00
   0.00000226   0.00000001   0.00000104          0.33      0.00      0.15


     number of scf cycles    =  21
     number of bfgs steps    =  20

     enthalpy old            =  -16491.1545263557 Ry
     enthalpy new            =  -16491.1547015700 Ry

     CASE: enthalpy_new < enthalpy_old

     new trust radius        =       0.0225660966 bohr
     new conv_thr            =       0.0000000018 Ry

     new unit-cell volume =  13502.83038 a.u.^3 (  2000.91300 Ang^3 )
     density =      4.12112 g/cm^3

CELL_PARAMETERS (alat= 24.15259000)
   1.000350413   0.000000000   0.000000000
   0.000000000   0.989508713   0.000000000
   0.000000000   0.000000000   0.968192929

ATOMIC_POSITIONS (crystal)
Pb       0.000372669   0.000624694  -0.000423904
Pb      -0.000744051   0.001266497   0.501107572
Pb       0.001610560   0.503171321   0.000145247
Pb       0.000826765   0.504651945   0.502114260
Pb       0.502021038   0.001162414   0.001513597
Pb       0.500459865   0.000988411   0.501352409
Pb       0.503958329   0.501736362   0.002366514
Pb       0.503538257   0.502390665   0.501528786
I        0.250998407   0.013303641  -0.033823474
I        0.026881203   0.252166657   0.042027258
I        0.043015314  -0.048127465   0.249901904
I        0.250240950   0.025556771   0.533487855
I        0.015999088   0.253693086   0.457151576
I       -0.047581277   0.049460699   0.750280711
I        0.253596391   0.535015703   0.028983720
I        0.009081265   0.751877321  -0.052499006
I       -0.037239763   0.549836169   0.250738244
I        0.252445862   0.523833141   0.474588234
I        0.023605600   0.753937096   0.546942401
I        0.036495943   0.447785334   0.751012256
I        0.750541508   0.031252121   0.036685180
I        0.507970487   0.251969224  -0.041250317
I        0.457377210   0.049301749   0.250902333
I        0.749725815   0.019986803   0.462862557
I        0.519474207   0.252470574   0.539213867
I        0.539744318  -0.048679693   0.751171232
I        0.752991557   0.511732299  -0.032340783
I        0.531132200   0.751924610   0.041018242
I        0.541182885   0.455698272   0.251704301
I        0.752708823   0.525376991   0.534178470
I        0.518420747   0.752298747   0.458107166
I        0.467933929   0.540533606   0.751891908
C        0.285067382   0.290319047   0.249842675
C        0.280722859   0.289449799   0.748403790
C        0.289335298   0.791667444   0.249603288
C        0.278628998   0.776139582   0.743898671
C        0.787481663   0.291905303   0.248966202
C        0.783395528   0.286750260   0.747534883
C        0.791789421   0.788724437   0.248935977
C        0.782668499   0.791893619   0.744771516
N        0.212895431   0.197671036   0.253597764
N        0.199437508   0.204857489   0.753925139
N        0.202230360   0.713299224   0.254244149
N        0.217779788   0.675876840   0.754876190
N        0.698599327   0.215474288   0.253504003
N        0.703474946   0.200906458   0.752724536
N        0.715719816   0.699301974   0.253330017
N        0.701961683   0.707331262   0.755186488
H        0.164707081   0.196335152   0.185574469
H        0.163543780   0.201927615   0.320608600
H        0.255204644   0.127766263   0.257002763
H        0.334451811   0.283755674   0.178004292
H        0.333963279   0.289815607   0.322348142
H        0.238902506   0.363018653   0.246478184
H        0.203832847   0.155032267   0.686795897
H        0.124973985   0.236849400   0.756665326
H        0.209150049   0.156864947   0.821789901
H        0.267227068   0.336664977   0.675589568
H        0.357913680   0.252278289   0.745437418
H        0.273909907   0.339434256   0.820224548
H        0.204071167   0.663427327   0.187136637
H        0.130747598   0.752257831   0.255828101
H        0.207797458   0.665549209   0.322564649
H        0.279487733   0.840603861   0.177534967
H        0.363938254   0.749687795   0.246311631
H        0.286168243   0.841483082   0.321690246
H        0.220110038   0.631838461   0.684342126
H        0.140038467   0.691512530   0.772649882
H        0.246702864   0.628997411   0.816868684
H        0.245767718   0.822359755   0.677364783
H        0.360259097   0.756267564   0.727283650
H        0.272650696   0.820727475   0.819362529
H        0.699015689   0.166025103   0.185981481
H        0.627760615   0.255334532   0.256234659
H        0.704029827   0.166401002   0.321030535
H        0.779308691   0.340614974   0.176404555
H        0.861066697   0.247958227   0.246414586
H        0.785085856   0.342151945   0.320860142
H        0.653959437   0.204072982   0.685671713
H        0.655876863   0.208643057   0.820780909
H        0.739009651   0.127440287   0.754908329
H        0.830682439   0.275717436   0.674766039
H        0.833273472   0.282118240   0.819118492
H        0.743615979   0.363167502   0.744821976
H        0.667027899   0.700046154   0.185662113
H        0.666945412   0.705040787   0.320630909
H        0.754753312   0.627653221   0.256262836
H        0.839569968   0.780166303   0.176113351
H        0.841630456   0.785822707   0.320680491
H        0.748525348   0.863235829   0.246618946
H        0.704049466   0.656468398   0.688902470
H        0.627774258   0.739546450   0.760182872
H        0.713942419   0.660601084   0.823483440
H        0.766078460   0.838116099   0.672054238
H        0.859711711   0.755047627   0.738777724
H        0.778897496   0.842976823   0.815877590



     Writing output data file MAPbI_vcrelax_PAW7.save/
     NEW-OLD atomic charge density approx. for the potential
     extrapolated charge  400.05080, renormalised to  400.00000

     total cpu time spent up to now is   582754.8 secs

     Self-consistent Calculation

     iteration #  1     ecut=   120.00 Ry     beta= 0.70
     Davidson diagonalization with overlap
     ethr =  1.00E-06,  avg # of iterations =  4.0

     total cpu time spent up to now is   587851.7 secs

     total energy              =  -16491.15466690 Ry
     Harris-Foulkes estimate   =  -16491.07662458 Ry
     estimated scf accuracy    <       0.00056943 Ry

     iteration #  2     ecut=   120.00 Ry     beta= 0.70
     Davidson diagonalization with overlap
     ethr =  1.42E-07,  avg # of iterations =  2.0

     total cpu time spent up to now is   590993.5 secs

     total energy              =  -16491.15482021 Ry
     Harris-Foulkes estimate   =  -16491.15482672 Ry
     estimated scf accuracy    <       0.00011133 Ry

     iteration #  3     ecut=   120.00 Ry     beta= 0.70
     Davidson diagonalization with overlap
     ethr =  2.78E-08,  avg # of iterations =  3.0

     total cpu time spent up to now is   594303.8 secs

     total energy              =  -16491.15484838 Ry
     Harris-Foulkes estimate   =  -16491.15484844 Ry
     estimated scf accuracy    <       0.00004032 Ry

     iteration #  4     ecut=   120.00 Ry     beta= 0.70
     Davidson diagonalization with overlap
     ethr =  1.01E-08,  avg # of iterations =  2.1

     total cpu time spent up to now is   597180.8 secs

     total energy              =  -16491.15485883 Ry
     Harris-Foulkes estimate   =  -16491.15485551 Ry
     estimated scf accuracy    <       0.00001799 Ry

     iteration #  5     ecut=   120.00 Ry     beta= 0.70
     Davidson diagonalization with overlap
     ethr =  4.50E-09,  avg # of iterations =  3.0

     total cpu time spent up to now is   600139.6 secs

     total energy              =  -16491.15486033 Ry
     Harris-Foulkes estimate   =  -16491.15486189 Ry
     estimated scf accuracy    <       0.00000640 Ry

     iteration #  6     ecut=   120.00 Ry     beta= 0.70
     Davidson diagonalization with overlap
     ethr =  1.60E-09,  avg # of iterations =  2.8

     total cpu time spent up to now is   603177.0 secs

     total energy              =  -16491.15486137 Ry
     Harris-Foulkes estimate   =  -16491.15486160 Ry
     estimated scf accuracy    <       0.00000042 Ry

     iteration #  7     ecut=   120.00 Ry     beta= 0.70
     Davidson diagonalization with overlap
