
     Program PWSCF v.6.4 starts on  2Apr2020 at 15:36:54 

     This program is part of the open-source Quantum ESPRESSO suite
     for quantum simulation of materials; please cite
         "P. Giannozzi et al., J. Phys.:Condens. Matter 21 395502 (2009);
         "P. Giannozzi et al., J. Phys.:Condens. Matter 29 465901 (2017);
          URL http://www.quantum-espresso.org", 
     in publications or presentations arising from this work. More details at
     http://www.quantum-espresso.org/quote

     Parallel version (MPI), running on    32 processors

     MPI processes distributed on     1 nodes
     K-points division:     npool     =       4
     R & G space division:  proc/nbgrp/npool/nimage =       8
     Waiting for input...
     Reading input from standard input
     Message from routine read_cards :
     DEPRECATED: no units specified in CELL_PARAMETERS card

     Current dimensions of program PWSCF are:
     Max number of different atomic species (ntypx) = 10
     Max number of k-points (npk) =  40000
     Max angular momentum in pseudopotentials (lmaxx) =  3
               file Pb.pbe-dn-kjpaw_psl.1.0.0.UPF: wavefunction(s)  6S 6P 5D renormalized
               file I.pbe-n-kjpaw_psl.1.0.0.UPF: wavefunction(s)  5S renormalized
               file C.pbe-n-kjpaw_psl.1.0.0.UPF: wavefunction(s)  2S 2P renormalized
               file N.pbe-n-kjpaw_psl.1.0.0.UPF: wavefunction(s)  2S renormalized
               file H.pbe-kjpaw_psl.1.0.0.UPF: wavefunction(s)  1S renormalized

     --------------------------------------------
     Parameters for DFT-D3 Dispersion Correction:
     --------------------------------------------
       Reference C6 values for interpolation: 

         atom   Coordination number   C6
         H          0.912             6.05
         H          0.000            15.18
         C          0.000            98.23
         C          0.987            86.49
         C          1.998            58.72
         C          2.999            51.56
         C          3.984            36.41
         N          0.000            50.54
         N          0.994            44.25
         N          2.014            39.35
         N          2.990            31.16
         I          0.000           703.93
         I          0.997           717.00
         Pb         0.000          1477.63
         Pb         0.938          1266.00
         Pb         1.936          1088.91
         Pb         2.908          1048.37
         Pb         3.910           910.57

       Values used:

         atom   Coordination number  R0_AB[au]  C6      C8
         Pb         4.800            4.041    910.57 144158.41
         Pb         4.813            4.041    910.57 144158.39
         Pb         4.825            4.041    910.57 144158.36
         Pb         4.842            4.041    910.57 144158.33
         Pb         4.828            4.041    910.57 144158.35
         Pb         4.827            4.041    910.57 144158.36
         Pb         4.857            4.041    910.57 144158.30
         Pb         4.858            4.041    910.57 144158.30
         I          1.933            3.532    717.00  65855.99
         I          1.955            3.532    717.00  65856.00
         I          1.952            3.532    717.00  65856.00
         I          1.932            3.532    717.00  65855.99
         I          1.961            3.532    717.00  65856.00
         I          1.975            3.532    717.00  65856.00
         I          1.883            3.532    717.00  65855.99
         I          1.941            3.532    717.00  65855.99
         I          1.971            3.532    717.00  65856.00
         I          1.908            3.532    717.00  65855.99
         I          1.961            3.532    717.00  65856.00
         I          1.993            3.532    717.00  65856.00
         I          1.919            3.532    717.00  65855.99
         I          1.983            3.532    717.00  65856.00
         I          1.979            3.532    717.00  65856.00
         I          1.935            3.532    717.00  65855.99
         I          1.990            3.532    717.00  65856.00
         I          1.962            3.532    717.00  65856.00
         I          1.969            3.532    717.00  65856.00
         I          1.991            3.532    717.00  65856.00
         I          1.981            3.532    717.00  65856.00
         I          1.980            3.532    717.00  65856.00
         I          1.992            3.532    717.00  65856.00
         I          2.009            3.532    717.00  65856.00
         C          4.038            2.750     36.59   1058.25
         C          4.042            2.750     36.59   1058.12
         C          4.041            2.750     36.59   1058.14
         C          4.036            2.750     36.59   1058.33
         C          4.041            2.750     36.59   1058.14
         C          4.045            2.750     36.58   1057.97
         C          4.043            2.750     36.58   1058.06
         C          4.046            2.750     36.58   1057.93
         N          4.065            2.478     31.16    687.49
         N          4.062            2.478     31.16    687.49
         N          4.059            2.478     31.16    687.49
         N          4.068            2.478     31.16    687.49
         N          4.062            2.478     31.16    687.49
         N          4.064            2.478     31.16    687.49
         N          4.064            2.478     31.16    687.49
         N          4.061            2.478     31.16    687.49
         H          1.076            2.062      6.13     74.07
         H          1.075            2.062      6.13     74.07
         H          1.050            2.062      6.14     74.25
         H          1.007            2.062      6.17     74.64
         H          1.007            2.062      6.17     74.64
         H          1.007            2.062      6.18     74.65
         H          1.075            2.062      6.13     74.08
         H          1.042            2.062      6.15     74.32
         H          1.071            2.062      6.13     74.10
         H          1.008            2.062      6.17     74.63
         H          1.011            2.062      6.17     74.60
         H          1.008            2.062      6.17     74.64
         H          1.063            2.062      6.13     74.16
         H          1.049            2.062      6.14     74.26
         H          1.062            2.062      6.14     74.16
         H          1.008            2.062      6.17     74.63
         H          1.010            2.062      6.17     74.61
         H          1.008            2.062      6.17     74.63
         H          1.038            2.062      6.15     74.35
         H          1.040            2.062      6.15     74.34
         H          1.032            2.062      6.15     74.40
         H          1.014            2.062      6.17     74.58
         H          1.012            2.062      6.17     74.59
         H          1.012            2.062      6.17     74.59
         H          1.075            2.062      6.13     74.07
         H          1.047            2.062      6.14     74.28
         H          1.076            2.062      6.13     74.07
         H          1.008            2.062      6.17     74.63
         H          1.010            2.062      6.17     74.61
         H          1.008            2.062      6.17     74.63
         H          1.073            2.062      6.13     74.09
         H          1.070            2.062      6.13     74.11
         H          1.042            2.062      6.15     74.32
         H          1.008            2.062      6.17     74.63
         H          1.009            2.062      6.17     74.63
         H          1.009            2.062      6.17     74.62
         H          1.077            2.062      6.13     74.06
         H          1.075            2.062      6.13     74.08
         H          1.046            2.062      6.15     74.28
         H          1.008            2.062      6.17     74.63
         H          1.009            2.062      6.17     74.63
         H          1.008            2.062      6.17     74.63
         H          1.067            2.062      6.13     74.12
         H          1.038            2.062      6.15     74.35
         H          1.062            2.062      6.13     74.16
         H          1.009            2.062      6.17     74.63
         H          1.014            2.062      6.17     74.57
         H          1.009            2.062      6.17     74.62

         Molecular C6 ( Ry / a.u.^6 ) =   1196388.03


     Subspace diagonalization in iterative solution of the eigenvalue problem:
     a serial algorithm will be used


     Parallelization info
     --------------------
     sticks:   dense  smooth     PW     G-vecs:    dense   smooth      PW
     Min        2752    2752    710               299691   299691   39244
     Max        2753    2753    711               299692   299692   39247
     Sum       22023   22023   5685              2397529  2397529  313963



     bravais-lattice index     =            0
     lattice parameter (alat)  =      24.1526  a.u.
     unit-cell volume          =   13500.0247 (a.u.)^3
     number of atoms/cell      =           96
     number of atomic types    =            5
     number of electrons       =       400.00
     number of Kohn-Sham states=          200
     kinetic-energy cutoff     =     120.0000  Ry
     charge density cutoff     =     480.0000  Ry
     convergence threshold     =      1.0E-07
     mixing beta               =       0.7000
     number of iterations used =            8  plain     mixing
     Exchange-correlation      = SLA PW PBX PBC ( 1  4  3  4 0 0)
     nstep                     =          150


     celldm(1)=  24.152590  celldm(2)=   0.000000  celldm(3)=   0.000000
     celldm(4)=   0.000000  celldm(5)=   0.000000  celldm(6)=   0.000000

     crystal axes: (cart. coord. in units of alat)
               a(1) = (   1.000976   0.000000   0.000000 )  
               a(2) = (   0.000000   0.986752   0.000000 )  
               a(3) = (   0.000000   0.000000   0.970089 )  

     reciprocal axes: (cart. coord. in units 2 pi/alat)
               b(1) = (  0.999025  0.000000  0.000000 )  
               b(2) = (  0.000000  1.013426  0.000000 )  
               b(3) = (  0.000000  0.000000  1.030833 )  


     PseudoPot. # 1 for Pb read from file:
     ../Pseudopotential/Pb.pbe-dn-kjpaw_psl.1.0.0.UPF
     MD5 check sum: 684fc8fbce61a260853528575e4d9ab7
     Pseudo is Projector augmented-wave + core cor, Zval = 14.0
     Generated using "atomic" code by A. Dal Corso v.6.3
     Shape of augmentation charge: PSQ
     Using radial grid of 1281 points,  6 beta functions with: 
                l(1) =   0
                l(2) =   0
                l(3) =   1
                l(4) =   1
                l(5) =   2
                l(6) =   2
     Q(r) pseudized with 0 coefficients 


     PseudoPot. # 2 for I  read from file:
     ../Pseudopotential/I.pbe-n-kjpaw_psl.1.0.0.UPF
     MD5 check sum: cd3d296c3308a581e1559a0c8a554cb5
     Pseudo is Projector augmented-wave + core cor, Zval =  7.0
     Generated using "atomic" code by A. Dal Corso v.6.3
     Shape of augmentation charge: PSQ
     Using radial grid of 1247 points,  6 beta functions with: 
                l(1) =   0
                l(2) =   0
                l(3) =   1
                l(4) =   1
                l(5) =   2
                l(6) =   2
     Q(r) pseudized with 0 coefficients 


     PseudoPot. # 3 for C  read from file:
     ../Pseudopotential/C.pbe-n-kjpaw_psl.1.0.0.UPF
     MD5 check sum: 5f16ad9a65e90284d1d834d4ab3b0f7d
     Pseudo is Projector augmented-wave + core cor, Zval =  4.0
     Generated using "atomic" code by A. Dal Corso v.6.3
     Shape of augmentation charge: PSQ
     Using radial grid of 1073 points,  4 beta functions with: 
                l(1) =   0
                l(2) =   0
                l(3) =   1
                l(4) =   1
     Q(r) pseudized with 0 coefficients 


     PseudoPot. # 4 for N  read from file:
     ../Pseudopotential/N.pbe-n-kjpaw_psl.1.0.0.UPF
     MD5 check sum: 14c48229446f9f2d411169a3abcbc3fa
     Pseudo is Projector augmented-wave + core cor, Zval =  5.0
     Generated using "atomic" code by A. Dal Corso v.6.3
     Shape of augmentation charge: PSQ
     Using radial grid of 1085 points,  4 beta functions with: 
                l(1) =   0
                l(2) =   0
                l(3) =   1
                l(4) =   1
     Q(r) pseudized with 0 coefficients 


     PseudoPot. # 5 for H  read from file:
     ../Pseudopotential/H.pbe-kjpaw_psl.1.0.0.UPF
     MD5 check sum: d81a744832360e4a8af0b0b5b123bc2a
     Pseudo is Projector augmented-wave, Zval =  1.0
     Generated using "atomic" code by A. Dal Corso v.6.3MaX
     Shape of augmentation charge: PSQ
     Using radial grid of  929 points,  2 beta functions with: 
                l(1) =   0
                l(2) =   0
     Q(r) pseudized with 0 coefficients 


     atomic species   valence    mass     pseudopotential
        Pb            14.00   207.97600     Pb( 1.00)
        I              7.00   126.90400     I ( 1.00)
        C              4.00    12.00000     C ( 1.00)
        N              5.00    14.00300     N ( 1.00)
        H              1.00     1.00700     H ( 1.00)

     No symmetry found



   Cartesian axes

     site n.     atom                  positions (alat units)
         1           Pb  tau(   1) = (   0.0029316   0.0023512  -0.0005225  )
         2           Pb  tau(   2) = (   0.0006563   0.0037609   0.4856202  )
         3           Pb  tau(   3) = (   0.0038311   0.4980816   0.0003063  )
         4           Pb  tau(   4) = (   0.0015470   0.4991835   0.4875694  )
         5           Pb  tau(   5) = (   0.5035517   0.0026523   0.0018405  )
         6           Pb  tau(   6) = (   0.5019594   0.0030694   0.4866706  )
         7           Pb  tau(   7) = (   0.5070349   0.4972103   0.0035476  )
         8           Pb  tau(   8) = (   0.5059206   0.4975080   0.4877861  )
         9           I   tau(   9) = (   0.2529499   0.0151321  -0.0341027  )
        10           I   tau(  10) = (   0.0284963   0.2497491   0.0409948  )
        11           I   tau(  11) = (   0.0421924  -0.0450509   0.2422012  )
        12           I   tau(  12) = (   0.2516532   0.0241753   0.5176407  )
        13           I   tau(  13) = (   0.0212273   0.2519727   0.4433376  )
        14           I   tau(  14) = (  -0.0427837   0.0507022   0.7275717  )
        15           I   tau(  15) = (   0.2552744   0.5271165   0.0284851  )
        16           I   tau(  16) = (   0.0126076   0.7429786  -0.0510024  )
        17           I   tau(  17) = (  -0.0341177   0.5419138   0.2436078  )
        18           I   tau(  18) = (   0.2538582   0.5232628   0.4631173  )
        19           I   tau(  19) = (   0.0188009   0.7454193   0.5286347  )
        20           I   tau(  20) = (   0.0349719   0.4414113   0.7288613  )
        21           I   tau(  21) = (   0.7532493   0.0283424   0.0332337  )
        22           I   tau(  22) = (   0.5142822   0.2493655  -0.0395022  )
        23           I   tau(  23) = (   0.4605439   0.0499030   0.2439947  )
        24           I   tau(  24) = (   0.7520854   0.0234876   0.4511831  )
        25           I   tau(  25) = (   0.5203572   0.2494639   0.5274851  )
        26           I   tau(  26) = (   0.5361846  -0.0478663   0.7291255  )
        27           I   tau(  27) = (   0.7557724   0.5096844  -0.0317174  )
        28           I   tau(  28) = (   0.5320504   0.7428031   0.0441020  )
        29           I   tau(  29) = (   0.5418574   0.4479089   0.2457638  )
        30           I   tau(  30) = (   0.7546247   0.5164773   0.5202389  )
        31           I   tau(  31) = (   0.5254104   0.7430609   0.4432746  )
        32           I   tau(  32) = (   0.4713565   0.5373511   0.7308222  )
        33           C   tau(  33) = (   0.2802258   0.2886013   0.2441619  )
        34           C   tau(  34) = (   0.2849112   0.2851569   0.7268348  )
        35           C   tau(  35) = (   0.2909275   0.7804786   0.2422832  )
        36           C   tau(  36) = (   0.2707516   0.7656518   0.7190175  )
        37           C   tau(  37) = (   0.7896395   0.2866478   0.2409438  )
        38           C   tau(  38) = (   0.7772919   0.2830015   0.7261933  )
        39           C   tau(  39) = (   0.7887137   0.7778002   0.2421104  )
        40           C   tau(  40) = (   0.7846588   0.7845336   0.7232042  )
        41           N   tau(  41) = (   0.2145838   0.1921005   0.2455836  )
        42           N   tau(  42) = (   0.1987917   0.2063804   0.7302636  )
        43           N   tau(  43) = (   0.2007106   0.7063556   0.2468517  )
        44           N   tau(  44) = (   0.2154196   0.6631422   0.7286734  )
        45           N   tau(  45) = (   0.7001993   0.2116203   0.2440451  )
        46           N   tau(  46) = (   0.7082516   0.1889984   0.7309121  )
        47           N   tau(  47) = (   0.7200939   0.6834193   0.2461490  )
        48           N   tau(  48) = (   0.7012387   0.7031891   0.7315150  )
        49           H   tau(  49) = (   0.1663086   0.1890536   0.1799753  )
        50           H   tau(  50) = (   0.1654437   0.1913666   0.3106094  )
        51           H   tau(  51) = (   0.2613856   0.1258033   0.2471275  )
        52           H   tau(  52) = (   0.3295038   0.2873528   0.1741916  )
        53           H   tau(  53) = (   0.3291705   0.2896732   0.3143523  )
        54           H   tau(  54) = (   0.2287303   0.3569432   0.2429080  )
        55           H   tau(  55) = (   0.2012521   0.1573974   0.6650543  )
        56           H   tau(  56) = (   0.1264158   0.2429310   0.7321794  )
        57           H   tau(  57) = (   0.2051270   0.1581725   0.7957690  )
        58           H   tau(  58) = (   0.2753464   0.3333384   0.6567323  )
        59           H   tau(  59) = (   0.3599139   0.2441382   0.7244223  )
        60           H   tau(  60) = (   0.2803328   0.3341780   0.7968298  )
        61           H   tau(  61) = (   0.2007251   0.6563672   0.1825180  )
        62           H   tau(  62) = (   0.1304560   0.7471471   0.2477210  )
        63           H   tau(  63) = (   0.2041663   0.6595565   0.3134541  )
        64           H   tau(  64) = (   0.2835486   0.8281679   0.1715643  )
        65           H   tau(  65) = (   0.3637004   0.7355008   0.2404429  )
        66           H   tau(  66) = (   0.2887041   0.8307055   0.3115572  )
        67           H   tau(  67) = (   0.2179342   0.6212667   0.6591494  )
        68           H   tau(  68) = (   0.1376336   0.6741490   0.7488067  )
        69           H   tau(  69) = (   0.2484738   0.6167449   0.7863863  )
        70           H   tau(  70) = (   0.2333830   0.8109053   0.6566847  )
        71           H   tau(  71) = (   0.3528827   0.7507312   0.7001850  )
        72           H   tau(  72) = (   0.2643481   0.8074018   0.7935047  )
        73           H   tau(  73) = (   0.7007814   0.1627355   0.1787542  )
        74           H   tau(  74) = (   0.6295137   0.2514245   0.2459886  )
        75           H   tau(  75) = (   0.7044877   0.1630717   0.3094881  )
        76           H   tau(  76) = (   0.7823030   0.3353406   0.1709076  )
        77           H   tau(  77) = (   0.8628519   0.2424543   0.2387230  )
        78           H   tau(  78) = (   0.7868676   0.3357368   0.3110023  )
        79           H   tau(  79) = (   0.6585663   0.1864527   0.6663994  )
        80           H   tau(  80) = (   0.6605786   0.1910221   0.7969503  )
        81           H   tau(  81) = (   0.7525764   0.1211426   0.7326586  )
        82           H   tau(  82) = (   0.8251790   0.2783924   0.6554241  )
        83           H   tau(  83) = (   0.8275063   0.2838069   0.7954443  )
        84           H   tau(  84) = (   0.7283292   0.3531296   0.7243358  )
        85           H   tau(  85) = (   0.6707108   0.6808830   0.1813478  )
        86           H   tau(  86) = (   0.6719887   0.6851083   0.3119338  )
        87           H   tau(  87) = (   0.7648906   0.6158422   0.2478926  )
        88           H   tau(  88) = (   0.8366764   0.7739024   0.1713383  )
        89           H   tau(  89) = (   0.8389062   0.7783121   0.3114177  )
        90           H   tau(  90) = (   0.7394995   0.8477690   0.2406998  )
        91           H   tau(  91) = (   0.7030885   0.6525697   0.6676403  )
        92           H   tau(  92) = (   0.6279047   0.7376282   0.7346171  )
        93           H   tau(  93) = (   0.7105811   0.6568990   0.7979809  )
        94           H   tau(  94) = (   0.7712345   0.8303787   0.6521460  )
        95           H   tau(  95) = (   0.8607979   0.7457782   0.7194747  )
        96           H   tau(  96) = (   0.7804948   0.8353593   0.7919281  )

     number of k points=    32
                       cart. coord. in units 2pi/alat
        k(    1) = (   0.1248781   0.1266782   0.1288541), wk =   0.0625000
        k(    2) = (   0.1248781   0.1266782   0.3865623), wk =   0.0625000
        k(    3) = (   0.1248781   0.3800346   0.1288541), wk =   0.0625000
        k(    4) = (   0.1248781   0.3800346   0.3865623), wk =   0.0625000
        k(    5) = (   0.3746344   0.1266782   0.1288541), wk =   0.0625000
        k(    6) = (   0.3746344   0.1266782   0.3865623), wk =   0.0625000
        k(    7) = (   0.3746344   0.3800346   0.1288541), wk =   0.0625000
        k(    8) = (   0.3746344   0.3800346   0.3865623), wk =   0.0625000
        k(    9) = (  -0.1248781  -0.1266782   0.1288541), wk =   0.0625000
        k(   10) = (  -0.1248781   0.1266782  -0.1288541), wk =   0.0625000
        k(   11) = (   0.1248781  -0.1266782  -0.1288541), wk =   0.0625000
        k(   12) = (  -0.1248781  -0.1266782   0.3865623), wk =   0.0625000
        k(   13) = (  -0.1248781   0.1266782  -0.3865623), wk =   0.0625000
        k(   14) = (   0.1248781  -0.1266782  -0.3865623), wk =   0.0625000
        k(   15) = (  -0.1248781  -0.3800346   0.1288541), wk =   0.0625000
        k(   16) = (  -0.1248781   0.3800346  -0.1288541), wk =   0.0625000
        k(   17) = (   0.1248781  -0.3800346  -0.1288541), wk =   0.0625000
        k(   18) = (  -0.1248781  -0.3800346   0.3865623), wk =   0.0625000
        k(   19) = (  -0.1248781   0.3800346  -0.3865623), wk =   0.0625000
        k(   20) = (   0.1248781  -0.3800346  -0.3865623), wk =   0.0625000
        k(   21) = (  -0.3746344  -0.1266782   0.1288541), wk =   0.0625000
        k(   22) = (  -0.3746344   0.1266782  -0.1288541), wk =   0.0625000
        k(   23) = (   0.3746344  -0.1266782  -0.1288541), wk =   0.0625000
        k(   24) = (  -0.3746344  -0.1266782   0.3865623), wk =   0.0625000
        k(   25) = (  -0.3746344   0.1266782  -0.3865623), wk =   0.0625000
        k(   26) = (   0.3746344  -0.1266782  -0.3865623), wk =   0.0625000
        k(   27) = (  -0.3746344  -0.3800346   0.1288541), wk =   0.0625000
        k(   28) = (  -0.3746344   0.3800346  -0.1288541), wk =   0.0625000
        k(   29) = (   0.3746344  -0.3800346  -0.1288541), wk =   0.0625000
        k(   30) = (  -0.3746344  -0.3800346   0.3865623), wk =   0.0625000
        k(   31) = (  -0.3746344   0.3800346  -0.3865623), wk =   0.0625000
        k(   32) = (   0.3746344  -0.3800346  -0.3865623), wk =   0.0625000

     Dense  grid:  2397529 G-vectors     FFT dimensions: ( 180, 180, 180)

     Estimated max dynamical RAM per process >       3.10 GB

     Estimated total dynamical RAM >      99.05 GB

     Initial potential from superposition of free atoms

     starting charge  399.97850, renormalised to  400.00000
     Starting wfcs are  280 randomized atomic wfcs
     Checking if some PAW data can be deallocated... 

     total cpu time spent up to now is     1123.0 secs

     Self-consistent Calculation

     iteration #  1     ecut=   120.00 Ry     beta= 0.70
     Davidson diagonalization with overlap
     ethr =  1.00E-02,  avg # of iterations =  2.0

     total cpu time spent up to now is     2578.8 secs

     total energy              =  -16489.36532899 Ry
     Harris-Foulkes estimate   =  -16492.77144746 Ry
     estimated scf accuracy    <       5.71252649 Ry

     iteration #  2     ecut=   120.00 Ry     beta= 0.70
     Davidson diagonalization with overlap
     ethr =  1.43E-03,  avg # of iterations =  3.0

     total cpu time spent up to now is     4518.2 secs

     total energy              =  -16490.60754811 Ry
     Harris-Foulkes estimate   =  -16491.84594849 Ry
     estimated scf accuracy    <       2.20177309 Ry

     iteration #  3     ecut=   120.00 Ry     beta= 0.70
     Davidson diagonalization with overlap
     ethr =  5.50E-04,  avg # of iterations =  3.0

     total cpu time spent up to now is     6077.1 secs

     total energy              =  -16491.12769729 Ry
     Harris-Foulkes estimate   =  -16491.17114242 Ry
     estimated scf accuracy    <       0.10062272 Ry

     iteration #  4     ecut=   120.00 Ry     beta= 0.70
     Davidson diagonalization with overlap
     ethr =  2.52E-05,  avg # of iterations =  3.0

     total cpu time spent up to now is     7937.4 secs

     total energy              =  -16491.15224427 Ry
     Harris-Foulkes estimate   =  -16491.16253524 Ry
     estimated scf accuracy    <       0.01885375 Ry

     iteration #  5     ecut=   120.00 Ry     beta= 0.70
     Davidson diagonalization with overlap
     ethr =  4.71E-06,  avg # of iterations =  2.2

     total cpu time spent up to now is     9604.6 secs

     total energy              =  -16491.15612818 Ry
     Harris-Foulkes estimate   =  -16491.15697723 Ry
     estimated scf accuracy    <       0.00151829 Ry

     iteration #  6     ecut=   120.00 Ry     beta= 0.70
     Davidson diagonalization with overlap
     ethr =  3.80E-07,  avg # of iterations =  3.0

     total cpu time spent up to now is    11549.3 secs

     total energy              =  -16491.15654525 Ry
     Harris-Foulkes estimate   =  -16491.15700125 Ry
     estimated scf accuracy    <       0.00107451 Ry

     iteration #  7     ecut=   120.00 Ry     beta= 0.70
     Davidson diagonalization with overlap
     ethr =  2.69E-07,  avg # of iterations =  2.3

     total cpu time spent up to now is    13126.5 secs

     total energy              =  -16491.15676656 Ry
     Harris-Foulkes estimate   =  -16491.15678129 Ry
     estimated scf accuracy    <       0.00004060 Ry

     iteration #  8     ecut=   120.00 Ry     beta= 0.70
     Davidson diagonalization with overlap
     ethr =  1.01E-08,  avg # of iterations =  3.0

     total cpu time spent up to now is    15160.4 secs

     total energy              =  -16491.15678036 Ry
     Harris-Foulkes estimate   =  -16491.15678407 Ry
     estimated scf accuracy    <       0.00000852 Ry

     iteration #  9     ecut=   120.00 Ry     beta= 0.70
     Davidson diagonalization with overlap
     ethr =  2.13E-09,  avg # of iterations =  3.0

     total cpu time spent up to now is    16744.1 secs

     total energy              =  -16491.15678224 Ry
     Harris-Foulkes estimate   =  -16491.15678278 Ry
     estimated scf accuracy    <       0.00000113 Ry

     iteration # 10     ecut=   120.00 Ry     beta= 0.70
     Davidson diagonalization with overlap
     ethr =  2.82E-10,  avg # of iterations =  3.8

     total cpu time spent up to now is    18599.3 secs

     total energy              =  -16491.15678254 Ry
     Harris-Foulkes estimate   =  -16491.15678266 Ry
     estimated scf accuracy    <       0.00000026 Ry

     iteration # 11     ecut=   120.00 Ry     beta= 0.70
     Davidson diagonalization with overlap
     ethr =  6.54E-11,  avg # of iterations =  3.2

     total cpu time spent up to now is    20203.0 secs

     End of self-consistent calculation

          k = 0.1249 0.1267 0.1289 (299663 PWs)   bands (ev):

   -17.5171 -17.4850 -17.4436 -17.4315 -17.4268 -17.4244 -17.4230 -17.4140
   -14.2942 -14.2884 -14.2858 -14.2821 -14.2772 -14.2756 -14.2741 -14.2714
   -14.2708 -14.2672 -14.2655 -14.2599 -14.2592 -14.2557 -14.2542 -14.2533
   -14.2487 -14.2483 -14.2446 -14.2443 -14.2443 -14.2431 -14.2428 -14.2424
   -14.2412 -14.2357 -14.2349 -14.2347 -14.2343 -14.2322 -14.2319 -14.2288
   -14.2263 -14.2257 -14.2247 -14.2230 -14.2178 -14.2165 -14.2145 -14.2073
   -10.4836 -10.4638 -10.4557 -10.4497 -10.4435 -10.4383 -10.4230 -10.4206
    -9.6885  -9.5215  -9.5184  -9.5049  -9.3568  -9.3457  -9.3362  -9.2994
    -9.2852  -9.2684  -9.2451  -9.2394  -9.2254  -9.1990  -9.1879  -9.1730
    -9.1608  -9.1492  -9.1214  -9.0835  -9.0307  -9.0103  -8.9928  -8.9791
    -6.9704  -6.9549  -6.9470  -6.9423  -6.9391  -6.9284  -6.9199  -6.9137
    -6.9078  -6.8701  -6.8124  -6.8035  -6.7991  -6.7851  -6.7741  -6.7700
    -5.8960  -5.4775  -5.4489  -5.4424  -5.0532  -5.0394  -5.0053  -4.8380
    -4.8240  -4.8135  -4.8066  -4.8011  -4.7953  -4.7791  -4.7739  -4.5734
    -2.8000  -2.7733  -2.7687  -2.7638  -2.7542  -2.7508  -2.7396  -2.7346
    -2.7271  -2.7232  -2.7155  -2.7039  -2.7000  -2.6965  -2.6931  -2.6885
    -0.8795  -0.8378  -0.8209  -0.7949  -0.7664  -0.7460  -0.7386  -0.7177
    -0.6594  -0.6079  -0.5939  -0.5578   0.2230   0.2939   0.2988   0.3105
     0.4027   0.4242   0.4352   0.4679   0.4873   0.5484   0.5720   0.5816
     0.6023   0.7288   0.7481   0.7743   0.8019   0.8219   0.8825   0.9130
     0.9233   0.9466   0.9517   0.9648   0.9772   1.0015   1.0106   1.0281
     1.0404   1.0743   1.1020   1.1190   1.1338   1.1483   1.1724   1.1802
     1.2119   1.2165   1.2294   1.2399   1.2426   1.2669   1.2815   1.3090
     1.3197   1.3497   1.3666   1.4197   1.4634   1.4691   1.4917   1.5627
     1.5985   1.6176   1.6728   1.6825   1.7169   1.7840   1.8534   2.0497

          k = 0.1249 0.1267 0.3866 (299683 PWs)   bands (ev):

   -17.5171 -17.4850 -17.4436 -17.4315 -17.4268 -17.4244 -17.4230 -17.4140
   -14.2934 -14.2870 -14.2843 -14.2826 -14.2771 -14.2768 -14.2744 -14.2729
   -14.2685 -14.2670 -14.2656 -14.2620 -14.2580 -14.2554 -14.2542 -14.2533
   -14.2498 -14.2483 -14.2451 -14.2446 -14.2443 -14.2431 -14.2428 -14.2424
   -14.2412 -14.2356 -14.2350 -14.2347 -14.2343 -14.2322 -14.2320 -14.2288
   -14.2263 -14.2257 -14.2247 -14.2230 -14.2178 -14.2165 -14.2145 -14.2073
   -10.4827 -10.4621 -10.4577 -10.4476 -10.4433 -10.4404 -10.4229 -10.4214
    -9.6532  -9.5859  -9.4869  -9.4745  -9.4260  -9.4137  -9.3287  -9.3025
    -9.2805  -9.2521  -9.2220  -9.2122  -9.2000  -9.1933  -9.1764  -9.1657
    -9.1501  -9.1210  -9.1118  -9.0915  -9.0596  -9.0391  -8.9938  -8.9830
    -6.9759  -6.9493  -6.9459  -6.9420  -6.9384  -6.9295  -6.9195  -6.9150
    -6.9056  -6.8755  -6.8068  -6.7976  -6.7920  -6.7863  -6.7812  -6.7753
    -5.7753  -5.5899  -5.3621  -5.3292  -5.1819  -5.1491  -4.9608  -4.8593
    -4.8281  -4.8164  -4.8068  -4.8027  -4.7872  -4.7802  -4.7647  -4.6915
    -2.7987  -2.7704  -2.7663  -2.7613  -2.7508  -2.7470  -2.7419  -2.7344
    -2.7281  -2.7217  -2.7165  -2.7047  -2.7026  -2.6985  -2.6960  -2.6893
    -0.8064  -0.7904  -0.7571  -0.7184  -0.7139  -0.7006  -0.6481  -0.6396
    -0.4806  -0.4020  -0.3728  -0.2709   0.0506   0.1236   0.1425   0.2260
     0.3417   0.3565   0.3885   0.4070   0.4374   0.4558   0.4646   0.4910
     0.5070   0.5433   0.7506   0.7662   0.7878   0.8150   0.8725   0.9004
     0.9087   0.9254   0.9470   0.9668   0.9902   1.0144   1.0305   1.0470
     1.0555   1.0707   1.0749   1.1001   1.1103   1.1329   1.1380   1.1721
     1.1991   1.2108   1.2274   1.2381   1.2540   1.2644   1.2801   1.3073
     1.3518   1.3636   1.3826   1.4142   1.4335   1.4606   1.4667   1.5439
     1.5925   1.6127   1.6386   1.6653   1.6785   1.6864   1.7538   1.8514

          k = 0.1249 0.3800 0.1289 (299653 PWs)   bands (ev):

   -17.5171 -17.4850 -17.4436 -17.4315 -17.4268 -17.4244 -17.4230 -17.4140
   -14.2941 -14.2878 -14.2857 -14.2817 -14.2767 -14.2746 -14.2735 -14.2710
   -14.2706 -14.2680 -14.2663 -14.2605 -14.2593 -14.2564 -14.2542 -14.2533
   -14.2489 -14.2483 -14.2448 -14.2446 -14.2443 -14.2430 -14.2428 -14.2424
   -14.2412 -14.2357 -14.2350 -14.2347 -14.2343 -14.2322 -14.2319 -14.2288
   -14.2263 -14.2257 -14.2247 -14.2230 -14.2178 -14.2165 -14.2145 -14.2073
   -10.4823 -10.4631 -10.4545 -10.4468 -10.4439 -10.4400 -10.4253 -10.4227
    -9.6487  -9.5736  -9.4955  -9.4850  -9.4105  -9.4015  -9.3341  -9.2958
    -9.2848  -9.2806  -9.2483  -9.2382  -9.2279  -9.1787  -9.1766  -9.1554
    -9.1353  -9.0986  -9.0874  -9.0753  -9.0477  -9.0251  -9.0133  -9.0046
    -6.9701  -6.9545  -6.9465  -6.9426  -6.9389  -6.9284  -6.9208  -6.9140
    -6.9075  -6.8697  -6.8121  -6.8032  -6.7996  -6.7837  -6.7758  -6.7711
    -5.7759  -5.5868  -5.3658  -5.3351  -5.1890  -5.1474  -4.9458  -4.8645
    -4.8279  -4.8126  -4.8039  -4.7983  -4.7925  -4.7826  -4.7656  -4.6837
    -2.7921  -2.7775  -2.7642  -2.7569  -2.7530  -2.7483  -2.7412  -2.7361
    -2.7289  -2.7237  -2.7182  -2.7078  -2.7034  -2.6971  -2.6938  -2.6886
    -0.8567  -0.8225  -0.7824  -0.7775  -0.7505  -0.7262  -0.6496  -0.5832
    -0.4350  -0.3869  -0.2807  -0.2273   0.0914   0.1492   0.2657   0.2883
     0.3217   0.3414   0.3495   0.3732   0.4477   0.4556   0.4697   0.5477
     0.5534   0.6257   0.6295   0.6499   0.7242   0.8117   0.8210   0.8318
     0.8933   0.9187   0.9287   0.9552   0.9806   0.9868   1.0021   1.0216
     1.0315   1.0477   1.0951   1.1175   1.1401   1.1548   1.1926   1.2055
     1.2184   1.2250   1.2405   1.2562   1.2617   1.2821   1.3065   1.3229
     1.3454   1.3534   1.4051   1.4162   1.4661   1.4779   1.4956   1.5231
     1.5598   1.5757   1.5801   1.5959   1.6215   1.6544   1.8125   1.8633

          k = 0.1249 0.3800 0.3866 (299641 PWs)   bands (ev):

   -17.5171 -17.4850 -17.4436 -17.4315 -17.4268 -17.4244 -17.4230 -17.4140
   -14.2933 -14.2864 -14.2842 -14.2824 -14.2770 -14.2756 -14.2738 -14.2721
   -14.2686 -14.2677 -14.2663 -14.2628 -14.2581 -14.2562 -14.2542 -14.2533
   -14.2498 -14.2483 -14.2456 -14.2446 -14.2443 -14.2431 -14.2428 -14.2424
   -14.2412 -14.2357 -14.2350 -14.2347 -14.2343 -14.2322 -14.2320 -14.2288
   -14.2263 -14.2257 -14.2247 -14.2231 -14.2178 -14.2165 -14.2145 -14.2073
   -10.4818 -10.4606 -10.4570 -10.4463 -10.4436 -10.4397 -10.4260 -10.4236
    -9.6161  -9.5524  -9.5383  -9.4823  -9.4593  -9.4018  -9.3768  -9.3366
    -9.2841  -9.2523  -9.2071  -9.2020  -9.1961  -9.1686  -9.1512  -9.1469
    -9.1211  -9.1161  -9.1082  -9.0705  -9.0657  -9.0413  -9.0211  -9.0072
    -6.9757  -6.9484  -6.9458  -6.9424  -6.9388  -6.9295  -6.9203  -6.9150
    -6.9051  -6.8755  -6.8067  -6.7975  -6.7920  -6.7860  -6.7816  -6.7758
    -5.6584  -5.4772  -5.4691  -5.2905  -5.2534  -5.0891  -5.0782  -4.9405
    -4.8272  -4.8129  -4.8031  -4.8003  -4.7905  -4.7830  -4.7703  -4.7493
    -2.7919  -2.7785  -2.7678  -2.7568  -2.7498  -2.7443  -2.7423  -2.7356
    -2.7289  -2.7241  -2.7175  -2.7058  -2.7020  -2.6977  -2.6942  -2.6879
    -0.7975  -0.7356  -0.7284  -0.6733  -0.5336  -0.4541  -0.4345  -0.3881
    -0.3175  -0.3011  -0.2923  -0.2807   0.0627   0.1084   0.1330   0.1450
     0.2104   0.2562   0.2703   0.3317   0.3784   0.4122   0.4273   0.4361
     0.5172   0.5484   0.6172   0.6381   0.7095   0.7293   0.7979   0.8289
     0.8646   0.8867   0.9015   0.9412   0.9593   0.9710   0.9949   1.0104
     1.0222   1.0360   1.0510   1.0628   1.1049   1.1171   1.1378   1.1557
     1.2084   1.2316   1.2498   1.2556   1.2629   1.2897   1.3093   1.3246
     1.3781   1.3900   1.4051   1.4321   1.4513   1.4689   1.4879   1.4956
     1.5094   1.5445   1.5785   1.5888   1.6140   1.6457   1.6660   1.7014

          k = 0.3746 0.1267 0.1289 (299706 PWs)   bands (ev):

   -17.5171 -17.4850 -17.4436 -17.4314 -17.4269 -17.4244 -17.4230 -17.4140
   -14.2929 -14.2880 -14.2864 -14.2808 -14.2782 -14.2756 -14.2753 -14.2713
   -14.2704 -14.2668 -14.2640 -14.2607 -14.2595 -14.2563 -14.2542 -14.2533
   -14.2494 -14.2483 -14.2446 -14.2443 -14.2443 -14.2431 -14.2428 -14.2424
   -14.2413 -14.2357 -14.2349 -14.2347 -14.2343 -14.2322 -14.2319 -14.2288
   -14.2263 -14.2257 -14.2247 -14.2230 -14.2178 -14.2165 -14.2145 -14.2073
   -10.4833 -10.4629 -10.4553 -10.4494 -10.4415 -10.4396 -10.4248 -10.4215
    -9.6469  -9.5875  -9.4894  -9.4788  -9.4181  -9.4027  -9.3307  -9.3010
    -9.2845  -9.2758  -9.2438  -9.2301  -9.1996  -9.1875  -9.1786  -9.1507
    -9.1290  -9.1145  -9.1051  -9.0887  -9.0505  -9.0224  -9.0190  -8.9879
    -6.9704  -6.9546  -6.9465  -6.9420  -6.9387  -6.9282  -6.9205  -6.9140
    -6.9077  -6.8702  -6.8123  -6.8033  -6.7996  -6.7835  -6.7749  -6.7711
    -5.7833  -5.6090  -5.3445  -5.3393  -5.1797  -5.1675  -4.9238  -4.8610
    -4.8298  -4.8077  -4.8052  -4.8003  -4.7874  -4.7774  -4.7721  -4.6787
    -2.7974  -2.7729  -2.7679  -2.7580  -2.7523  -2.7488  -2.7391  -2.7364
    -2.7273  -2.7221  -2.7145  -2.7082  -2.7034  -2.7001  -2.6944  -2.6886
    -0.8588  -0.8192  -0.8045  -0.7671  -0.7437  -0.7082  -0.6351  -0.6033
    -0.4517  -0.3786  -0.2984  -0.2242   0.0881   0.1614   0.2626   0.2836
     0.3137   0.3284   0.3482   0.3693   0.4298   0.4419   0.4559   0.5269
     0.5488   0.6112   0.6230   0.6628   0.7051   0.7867   0.8158   0.8218
     0.8780   0.8978   0.9367   0.9756   0.9882   1.0161   1.0218   1.0358
     1.0532   1.0639   1.0966   1.1095   1.1246   1.1516   1.1962   1.2096
     1.2245   1.2355   1.2401   1.2491   1.2751   1.2834   1.2968   1.3095
     1.3255   1.3443   1.3859   1.4245   1.4531   1.4766   1.4948   1.5533
     1.5686   1.5840   1.5960   1.6036   1.6348   1.6420   1.8743   1.9009

          k = 0.3746 0.1267 0.3866 (299714 PWs)   bands (ev):

   -17.5171 -17.4850 -17.4436 -17.4314 -17.4268 -17.4244 -17.4230 -17.4140
   -14.2920 -14.2869 -14.2846 -14.2815 -14.2785 -14.2769 -14.2749 -14.2731
   -14.2679 -14.2666 -14.2643 -14.2620 -14.2595 -14.2556 -14.2542 -14.2533
   -14.2504 -14.2483 -14.2451 -14.2446 -14.2443 -14.2431 -14.2428 -14.2424
   -14.2413 -14.2356 -14.2350 -14.2347 -14.2343 -14.2322 -14.2320 -14.2288
   -14.2263 -14.2257 -14.2247 -14.2231 -14.2178 -14.2165 -14.2145 -14.2073
   -10.4824 -10.4617 -10.4570 -10.4472 -10.4417 -10.4410 -10.4248 -10.4225
    -9.6137  -9.5523  -9.5481  -9.4899  -9.4555  -9.3985  -9.3822  -9.3454
    -9.2425  -9.2265  -9.2135  -9.2008  -9.1886  -9.1772  -9.1599  -9.1516
    -9.1331  -9.1275  -9.1127  -9.0769  -9.0688  -9.0393  -9.0192  -8.9999
    -6.9759  -6.9481  -6.9459  -6.9422  -6.9383  -6.9292  -6.9202  -6.9151
    -6.9053  -6.8755  -6.8068  -6.7978  -6.7923  -6.7853  -6.7817  -6.7757
    -5.6655  -5.4921  -5.4835  -5.3107  -5.2300  -5.0791  -5.0552  -4.9332
    -4.8271  -4.8080  -4.8041  -4.7966  -4.7927  -4.7828  -4.7730  -4.7491
    -2.7966  -2.7706  -2.7626  -2.7583  -2.7495  -2.7480  -2.7427  -2.7337
    -2.7284  -2.7208  -2.7145  -2.7082  -2.7046  -2.7002  -2.6967  -2.6911
    -0.7871  -0.7391  -0.7259  -0.6761  -0.5232  -0.4534  -0.4261  -0.3955
    -0.3513  -0.3034  -0.2841  -0.2667   0.0640   0.0719   0.1264   0.1497
     0.2118   0.2319   0.2534   0.3167   0.4067   0.4135   0.4238   0.4324
     0.5217   0.5687   0.6222   0.6604   0.6719   0.7211   0.7375   0.7890
     0.8160   0.8712   0.8774   0.9087   0.9262   0.9738   1.0112   1.0310
     1.0350   1.0511   1.0574   1.0753   1.1124   1.1392   1.1655   1.1723
     1.2196   1.2512   1.2564   1.2687   1.2822   1.2997   1.3130   1.3313
     1.3540   1.3770   1.3922   1.4199   1.4499   1.4728   1.4761   1.5286
     1.5423   1.5613   1.5812   1.5866   1.6272   1.6539   1.6961   1.7234

          k = 0.3746 0.3800 0.1289 (299650 PWs)   bands (ev):

   -17.5171 -17.4850 -17.4436 -17.4314 -17.4269 -17.4244 -17.4230 -17.4140
   -14.2929 -14.2874 -14.2863 -14.2805 -14.2778 -14.2747 -14.2745 -14.2706
   -14.2706 -14.2675 -14.2649 -14.2609 -14.2598 -14.2572 -14.2542 -14.2533
   -14.2495 -14.2483 -14.2448 -14.2446 -14.2443 -14.2430 -14.2428 -14.2424
   -14.2413 -14.2357 -14.2350 -14.2347 -14.2343 -14.2322 -14.2319 -14.2288
   -14.2263 -14.2257 -14.2247 -14.2230 -14.2178 -14.2165 -14.2145 -14.2073
   -10.4824 -10.4633 -10.4548 -10.4458 -10.4440 -10.4401 -10.4252 -10.4227
    -9.6066  -9.5693  -9.5478  -9.4543  -9.4495  -9.3983  -9.3810  -9.3316
    -9.2866  -9.2769  -9.2478  -9.2355  -9.1856  -9.1467  -9.1390  -9.1227
    -9.1125  -9.1074  -9.0938  -9.0835  -9.0558  -9.0416  -9.0363  -9.0128
    -6.9701  -6.9547  -6.9466  -6.9419  -6.9389  -6.9284  -6.9207  -6.9140
    -6.9064  -6.8698  -6.8119  -6.8030  -6.7991  -6.7843  -6.7749  -6.7726
    -5.6666  -5.5032  -5.4738  -5.3164  -5.2392  -5.0680  -5.0395  -4.9436
    -4.8307  -4.8142  -4.8020  -4.7955  -4.7919  -4.7804  -4.7698  -4.7403
    -2.7905  -2.7755  -2.7635  -2.7538  -2.7489  -2.7473  -2.7393  -2.7371
    -2.7290  -2.7254  -2.7172  -2.7117  -2.7070  -2.7002  -2.6947  -2.6881
    -0.8311  -0.7914  -0.7555  -0.7053  -0.4996  -0.4688  -0.4455  -0.3399
    -0.3270  -0.2993  -0.2708  -0.2282   0.0654   0.1308   0.1460   0.2245
     0.2849   0.2913   0.3195   0.3297   0.3489   0.3646   0.3798   0.4450
     0.5420   0.5796   0.5926   0.6075   0.7117   0.7217   0.7407   0.7592
     0.7891   0.8102   0.8673   0.8894   0.9074   0.9266   0.9657   0.9716
     1.0212   1.0577   1.0863   1.1175   1.1394   1.1745   1.1832   1.1926
     1.2156   1.2317   1.2396   1.2619   1.2735   1.2970   1.3138   1.3523
     1.3908   1.4181   1.4246   1.4303   1.4593   1.4724   1.4855   1.4957
     1.5209   1.5398   1.5496   1.5584   1.5730   1.6548   1.6731   1.6950

          k = 0.3746 0.3800 0.3866 (299686 PWs)   bands (ev):

   -17.5171 -17.4850 -17.4436 -17.4314 -17.4268 -17.4244 -17.4230 -17.4140
   -14.2919 -14.2861 -14.2845 -14.2814 -14.2785 -14.2756 -14.2743 -14.2723
   -14.2679 -14.2674 -14.2650 -14.2627 -14.2596 -14.2565 -14.2542 -14.2533
   -14.2505 -14.2483 -14.2457 -14.2446 -14.2443 -14.2431 -14.2428 -14.2424
   -14.2413 -14.2357 -14.2350 -14.2347 -14.2343 -14.2322 -14.2320 -14.2288
   -14.2263 -14.2257 -14.2247 -14.2231 -14.2178 -14.2165 -14.2145 -14.2073
   -10.4818 -10.4609 -10.4573 -10.4455 -10.4435 -10.4398 -10.4259 -10.4236
    -9.5762  -9.5347  -9.5180  -9.5116  -9.4703  -9.4531  -9.4249  -9.3861
    -9.2433  -9.2194  -9.1962  -9.1863  -9.1747  -9.1559  -9.1424  -9.1358
    -9.1250  -9.1129  -9.0938  -9.0789  -9.0650  -9.0545  -9.0434  -9.0206
    -6.9757  -6.9482  -6.9464  -6.9418  -6.9379  -6.9296  -6.9200  -6.9149
    -6.9045  -6.8756  -6.8067  -6.7977  -6.7921  -6.7858  -6.7817  -6.7761
    -5.5532  -5.3885  -5.3770  -5.3590  -5.2135  -5.2087  -5.1801  -5.0540
    -4.8286  -4.8135  -4.8019  -4.7967  -4.7936  -4.7848  -4.7715  -4.7651
    -2.7906  -2.7770  -2.7671  -2.7520  -2.7484  -2.7444  -2.7427  -2.7360
    -2.7297  -2.7246  -2.7159  -2.7081  -2.7051  -2.6987  -2.6943  -2.6888
    -0.5447  -0.5208  -0.4912  -0.4491  -0.4262  -0.3729  -0.3611  -0.3437
    -0.3313  -0.3077  -0.2973  -0.2143   0.0647   0.0812   0.1135   0.1312
     0.1786   0.2020   0.2228   0.2291   0.2795   0.2895   0.2976   0.3607
     0.5940   0.6091   0.6242   0.6458   0.6741   0.7032   0.7314   0.7581
     0.7719   0.7970   0.8362   0.8642   0.8772   0.9013   0.9070   0.9287
     0.9512   0.9720   0.9927   1.0108   1.0348   1.0483   1.0707   1.0855
     1.2385   1.2656   1.2782   1.2846   1.3050   1.3195   1.3359   1.3596
     1.3990   1.4051   1.4199   1.4348   1.4545   1.4672   1.4719   1.4988
     1.5029   1.5372   1.5532   1.5596   1.5676   1.5777   1.5910   1.5944

          k =-0.1249-0.1267 0.1289 (299663 PWs)   bands (ev):

   -17.5171 -17.4850 -17.4436 -17.4315 -17.4268 -17.4244 -17.4230 -17.4140
   -14.2942 -14.2884 -14.2858 -14.2821 -14.2772 -14.2756 -14.2741 -14.2714
   -14.2708 -14.2672 -14.2655 -14.2599 -14.2592 -14.2557 -14.2542 -14.2533
   -14.2487 -14.2483 -14.2446 -14.2443 -14.2443 -14.2431 -14.2428 -14.2424
   -14.2412 -14.2357 -14.2349 -14.2347 -14.2343 -14.2322 -14.2319 -14.2288
   -14.2263 -14.2257 -14.2247 -14.2230 -14.2178 -14.2165 -14.2145 -14.2073
   -10.4835 -10.4638 -10.4557 -10.4496 -10.4435 -10.4385 -10.4232 -10.4205
    -9.6880  -9.5229  -9.5180  -9.5059  -9.3553  -9.3452  -9.3351  -9.3018
    -9.2811  -9.2694  -9.2442  -9.2405  -9.2284  -9.2006  -9.1864  -9.1731
    -9.1597  -9.1489  -9.1208  -9.0840  -9.0311  -9.0105  -8.9927  -8.9791
    -6.9704  -6.9550  -6.9470  -6.9425  -6.9391  -6.9284  -6.9201  -6.9136
    -6.9075  -6.8701  -6.8124  -6.8034  -6.7992  -6.7851  -6.7742  -6.7700
    -5.8959  -5.4776  -5.4488  -5.4426  -5.0532  -5.0393  -5.0053  -4.8381
    -4.8243  -4.8135  -4.8066  -4.8012  -4.7952  -4.7793  -4.7738  -4.5729
    -2.7996  -2.7719  -2.7693  -2.7639  -2.7533  -2.7514  -2.7399  -2.7338
    -2.7269  -2.7233  -2.7158  -2.7044  -2.7000  -2.6968  -2.6936  -2.6889
    -0.8864  -0.8367  -0.8179  -0.7969  -0.7678  -0.7523  -0.7302  -0.7135
    -0.6584  -0.6080  -0.5936  -0.5575   0.2239   0.2942   0.2979   0.3087
     0.3985   0.4228   0.4383   0.4670   0.4860   0.5509   0.5748   0.5858
     0.6032   0.7275   0.7490   0.7837   0.7984   0.8146   0.8845   0.9124
     0.9173   0.9441   0.9505   0.9699   0.9789   0.9906   1.0110   1.0237
     1.0385   1.0809   1.1036   1.1221   1.1341   1.1442   1.1728   1.1870
     1.2078   1.2166   1.2354   1.2413   1.2464   1.2658   1.2808   1.3077
     1.3180   1.3482   1.3636   1.4218   1.4633   1.4703   1.4902   1.5611
     1.5975   1.6179   1.6753   1.6807   1.7171   1.7836   1.8534   2.0519

          k =-0.1249 0.1267-0.1289 (299663 PWs)   bands (ev):

   -17.5171 -17.4850 -17.4436 -17.4315 -17.4268 -17.4244 -17.4230 -17.4140
   -14.2942 -14.2884 -14.2858 -14.2821 -14.2772 -14.2756 -14.2741 -14.2714
   -14.2708 -14.2672 -14.2655 -14.2599 -14.2592 -14.2557 -14.2542 -14.2533
   -14.2487 -14.2483 -14.2446 -14.2443 -14.2443 -14.2431 -14.2428 -14.2424
   -14.2412 -14.2357 -14.2349 -14.2347 -14.2343 -14.2322 -14.2319 -14.2288
   -14.2263 -14.2257 -14.2247 -14.2230 -14.2178 -14.2165 -14.2145 -14.2073
   -10.4837 -10.4644 -10.4560 -10.4493 -10.4443 -10.4381 -10.4222 -10.4201
    -9.6930  -9.5195  -9.5119  -9.4986  -9.3690  -9.3527  -9.3371  -9.2947
    -9.2811  -9.2711  -9.2501  -9.2353  -9.2255  -9.2005  -9.1865  -9.1731
    -9.1579  -9.1452  -9.1208  -9.0852  -9.0326  -9.0120  -8.9918  -8.9777
    -6.9704  -6.9547  -6.9466  -6.9426  -6.9389  -6.9283  -6.9205  -6.9138
    -6.9080  -6.8701  -6.8124  -6.8034  -6.7996  -6.7840  -6.7749  -6.7699
    -5.8961  -5.4767  -5.4477  -5.4421  -5.0528  -5.0432  -5.0111  -4.8371
    -4.8227  -4.8142  -4.8055  -4.8001  -4.7931  -4.7773  -4.7721  -4.5756
    -2.7999  -2.7726  -2.7682  -2.7647  -2.7531  -2.7520  -2.7388  -2.7332
    -2.7268  -2.7255  -2.7158  -2.7054  -2.7001  -2.6964  -2.6916  -2.6887
    -0.8994  -0.8689  -0.8026  -0.7852  -0.7684  -0.7431  -0.7252  -0.7094
    -0.6617  -0.6071  -0.5923  -0.5415   0.2216   0.2906   0.3097   0.3149
     0.3800   0.4080   0.4418   0.4544   0.4764   0.5186   0.5797   0.5907
     0.6366   0.7288   0.7486   0.7694   0.7898   0.8245   0.8694   0.8814
     0.9135   0.9389   0.9614   0.9749   0.9998   1.0194   1.0314   1.0557
     1.0648   1.0815   1.0996   1.1141   1.1308   1.1426   1.1564   1.1781
     1.2002   1.2111   1.2180   1.2300   1.2394   1.2775   1.2811   1.3051
     1.3393   1.3474   1.3596   1.4056   1.4586   1.4785   1.4986   1.5653
     1.5961   1.6178   1.6398   1.6712   1.7723   1.7799   1.8470   2.0719

          k = 0.1249-0.1267-0.1289 (299663 PWs)   bands (ev):

   -17.5171 -17.4850 -17.4436 -17.4315 -17.4268 -17.4244 -17.4230 -17.4140
   -14.2942 -14.2884 -14.2858 -14.2821 -14.2772 -14.2756 -14.2741 -14.2714
   -14.2708 -14.2672 -14.2655 -14.2599 -14.2592 -14.2557 -14.2542 -14.2533
   -14.2487 -14.2483 -14.2446 -14.2443 -14.2443 -14.2431 -14.2428 -14.2424
   -14.2412 -14.2357 -14.2349 -14.2347 -14.2343 -14.2322 -14.2319 -14.2288
   -14.2263 -14.2257 -14.2247 -14.2230 -14.2178 -14.2165 -14.2145 -14.2073
   -10.4837 -10.4644 -10.4559 -10.4494 -10.4443 -10.4380 -10.4221 -10.4201
    -9.6931  -9.5199  -9.5122  -9.4975  -9.3694  -9.3526  -9.3372  -9.2954
    -9.2787  -9.2724  -9.2493  -9.2380  -9.2244  -9.1989  -9.1884  -9.1724
    -9.1568  -9.1454  -9.1217  -9.0848  -9.0329  -9.0116  -8.9920  -8.9777
    -6.9704  -6.9546  -6.9467  -6.9426  -6.9389  -6.9283  -6.9202  -6.9139
    -6.9083  -6.8700  -6.8124  -6.8034  -6.7996  -6.7840  -6.7749  -6.7698
    -5.8962  -5.4767  -5.4475  -5.4419  -5.0531  -5.0430  -5.0112  -4.8372
    -4.8226  -4.8141  -4.8054  -4.8000  -4.7932  -4.7772  -4.7721  -4.5756
    -2.8000  -2.7735  -2.7682  -2.7642  -2.7540  -2.7512  -2.7392  -2.7337
    -2.7273  -2.7244  -2.7159  -2.7036  -2.7005  -2.6961  -2.6918  -2.6893
    -0.8997  -0.8695  -0.8038  -0.7797  -0.7650  -0.7486  -0.7309  -0.7042
    -0.6617  -0.6075  -0.5927  -0.5420   0.2220   0.2909   0.3103   0.3149
     0.3815   0.4045   0.4455   0.4580   0.4716   0.5157   0.5820   0.5887
     0.6368   0.7308   0.7527   0.7679   0.7921   0.8240   0.8715   0.8840
     0.9067   0.9321   0.9614   0.9769   0.9988   1.0107   1.0310   1.0605
     1.0667   1.0854   1.1007   1.1117   1.1325   1.1469   1.1559   1.1756
     1.2018   1.2067   1.2157   1.2327   1.2423   1.2742   1.2842   1.3021
     1.3440   1.3474   1.3589   1.4051   1.4578   1.4790   1.4970   1.5654
     1.5969   1.6180   1.6388   1.6710   1.7727   1.7791   1.8475   2.0724

          k =-0.1249-0.1267 0.3866 (299683 PWs)   bands (ev):

   -17.5171 -17.4850 -17.4436 -17.4315 -17.4268 -17.4244 -17.4230 -17.4140
   -14.2934 -14.2870 -14.2843 -14.2826 -14.2771 -14.2768 -14.2744 -14.2729
   -14.2685 -14.2670 -14.2656 -14.2620 -14.2580 -14.2554 -14.2542 -14.2533
   -14.2498 -14.2483 -14.2451 -14.2446 -14.2443 -14.2431 -14.2428 -14.2424
   -14.2412 -14.2356 -14.2350 -14.2347 -14.2343 -14.2322 -14.2320 -14.2288
   -14.2263 -14.2257 -14.2247 -14.2230 -14.2178 -14.2165 -14.2145 -14.2073
   -10.4827 -10.4621 -10.4578 -10.4474 -10.4432 -10.4407 -10.4231 -10.4212
    -9.6518  -9.5878  -9.4877  -9.4761  -9.4240  -9.4123  -9.3305  -9.2996
    -9.2818  -9.2516  -9.2217  -9.2128  -9.2017  -9.1938  -9.1754  -9.1643
    -9.1518  -9.1203  -9.1106  -9.0915  -9.0604  -9.0396  -8.9937  -8.9830
    -6.9759  -6.9493  -6.9458  -6.9423  -6.9384  -6.9295  -6.9198  -6.9150
    -6.9052  -6.8756  -6.8068  -6.7976  -6.7918  -6.7864  -6.7812  -6.7754
    -5.7750  -5.5902  -5.3621  -5.3293  -5.1817  -5.1489  -4.9602  -4.8607
    -4.8282  -4.8164  -4.8068  -4.8028  -4.7869  -4.7806  -4.7649  -4.6902
    -2.7983  -2.7698  -2.7661  -2.7606  -2.7508  -2.7476  -2.7424  -2.7341
    -2.7264  -2.7208  -2.7179  -2.7072  -2.7015  -2.6988  -2.6958  -2.6900
    -0.8082  -0.7897  -0.7584  -0.7246  -0.7142  -0.6963  -0.6493  -0.6395
    -0.4754  -0.3987  -0.3706  -0.2708   0.0465   0.1218   0.1410   0.2309
     0.3373   0.3574   0.3920   0.4099   0.4373   0.4510   0.4674   0.4926
     0.5036   0.5438   0.7520   0.7675   0.7858   0.8080   0.8711   0.8965
     0.9079   0.9284   0.9447   0.9707   0.9878   1.0154   1.0319   1.0479
     1.0565   1.0717   1.0794   1.1006   1.1099   1.1330   1.1368   1.1712
     1.2023   1.2108   1.2266   1.2357   1.2535   1.2683   1.2746   1.3103
     1.3522   1.3663   1.3832   1.4146   1.4359   1.4576   1.4637   1.5423
     1.5905   1.6120   1.6385   1.6668   1.6808   1.6839   1.7525   1.8542

          k =-0.1249 0.1267-0.3866 (299683 PWs)   bands (ev):

   -17.5171 -17.4850 -17.4436 -17.4315 -17.4268 -17.4244 -17.4230 -17.4140
   -14.2934 -14.2870 -14.2843 -14.2826 -14.2771 -14.2768 -14.2744 -14.2729
   -14.2685 -14.2670 -14.2656 -14.2620 -14.2580 -14.2554 -14.2542 -14.2533
   -14.2498 -14.2483 -14.2451 -14.2446 -14.2443 -14.2431 -14.2428 -14.2424
   -14.2412 -14.2356 -14.2350 -14.2347 -14.2343 -14.2322 -14.2320 -14.2288
   -14.2263 -14.2257 -14.2247 -14.2230 -14.2178 -14.2165 -14.2145 -14.2073
   -10.4828 -10.4626 -10.4581 -10.4473 -10.4439 -10.4405 -10.4221 -10.4207
    -9.6563  -9.5892  -9.4795  -9.4691  -9.4202  -9.4095  -9.3468  -9.3097
    -9.2803  -9.2510  -9.2207  -9.2090  -9.2015  -9.1945  -9.1772  -9.1625
    -9.1448  -9.1223  -9.1111  -9.0920  -9.0614  -9.0411  -8.9920  -8.9820
    -6.9759  -6.9489  -6.9454  -6.9426  -6.9388  -6.9293  -6.9204  -6.9150
    -6.9054  -6.8756  -6.8068  -6.7975  -6.7921  -6.7858  -6.7815  -6.7754
    -5.7743  -5.5884  -5.3621  -5.3312  -5.1835  -5.1523  -4.9579  -4.8545
    -4.8295  -4.8188  -4.8073  -4.8035  -4.7854  -4.7792  -4.7637  -4.6930
    -2.7986  -2.7694  -2.7671  -2.7597  -2.7507  -2.7477  -2.7412  -2.7346
    -2.7265  -2.7237  -2.7177  -2.7078  -2.7022  -2.6977  -2.6951  -2.6891
    -0.8522  -0.7927  -0.7495  -0.7106  -0.6936  -0.6857  -0.6449  -0.6308
    -0.4874  -0.3934  -0.3670  -0.2753   0.0416   0.1212   0.1433   0.2268
     0.3287   0.3552   0.3953   0.4128   0.4222   0.4563   0.4669   0.4780
     0.4991   0.5688   0.7636   0.7749   0.7868   0.8112   0.8167   0.8464
     0.9274   0.9447   0.9637   0.9793   0.9977   1.0212   1.0339   1.0494
     1.0575   1.0601   1.0785   1.0984   1.1068   1.1329   1.1576   1.1694
     1.1860   1.2076   1.2213   1.2372   1.2503   1.2555   1.2866   1.3439
     1.3643   1.3710   1.3833   1.4109   1.4336   1.4572   1.4659   1.5427
     1.5853   1.6095   1.6273   1.6453   1.6541   1.6716   1.7998   1.8826

          k = 0.1249-0.1267-0.3866 (299683 PWs)   bands (ev):

   -17.5171 -17.4850 -17.4436 -17.4315 -17.4268 -17.4244 -17.4230 -17.4140
   -14.2934 -14.2870 -14.2843 -14.2826 -14.2771 -14.2768 -14.2744 -14.2729
   -14.2685 -14.2670 -14.2656 -14.2620 -14.2580 -14.2554 -14.2542 -14.2533
   -14.2498 -14.2483 -14.2451 -14.2446 -14.2443 -14.2431 -14.2428 -14.2424
   -14.2412 -14.2356 -14.2350 -14.2347 -14.2343 -14.2322 -14.2320 -14.2288
   -14.2263 -14.2257 -14.2247 -14.2230 -14.2178 -14.2165 -14.2145 -14.2073
   -10.4829 -10.4625 -10.4581 -10.4474 -10.4440 -10.4403 -10.4220 -10.4208
    -9.6564  -9.5891  -9.4803  -9.4679  -9.4198  -9.4101  -9.3472  -9.3089
    -9.2810  -9.2510  -9.2203  -9.2098  -9.2012  -9.1941  -9.1783  -9.1595
    -9.1471  -9.1218  -9.1107  -9.0925  -9.0621  -9.0403  -8.9923  -8.9818
    -6.9759  -6.9488  -6.9456  -6.9425  -6.9388  -6.9293  -6.9200  -6.9152
    -6.9057  -6.8755  -6.8068  -6.7977  -6.7919  -6.7860  -6.7815  -6.7753
    -5.7746  -5.5882  -5.3621  -5.3308  -5.1835  -5.1527  -4.9583  -4.8541
    -4.8294  -4.8188  -4.8072  -4.8034  -4.7858  -4.7789  -4.7636  -4.6932
    -2.7987  -2.7697  -2.7675  -2.7597  -2.7509  -2.7470  -2.7416  -2.7344
    -2.7282  -2.7233  -2.7173  -2.7053  -2.7020  -2.6977  -2.6956  -2.6898
    -0.8534  -0.7910  -0.7500  -0.7072  -0.6951  -0.6852  -0.6480  -0.6300
    -0.4866  -0.3961  -0.3657  -0.2766   0.0428   0.1247   0.1408   0.2276
     0.3297   0.3571   0.3918   0.4149   0.4182   0.4537   0.4718   0.4752
     0.5024   0.5698   0.7667   0.7709   0.7769   0.8149   0.8185   0.8457
     0.9277   0.9487   0.9612   0.9833   0.9996   1.0197   1.0349   1.0467
     1.0547   1.0658   1.0785   1.0967   1.1020   1.1306   1.1608   1.1705
     1.1849   1.2086   1.2234   1.2382   1.2457   1.2624   1.2825   1.3454
     1.3625   1.3721   1.3807   1.4121   1.4308   1.4586   1.4668   1.5417
     1.5881   1.6100   1.6231   1.6433   1.6541   1.6751   1.8000   1.8831

          k =-0.1249-0.3800 0.1289 (299653 PWs)   bands (ev):

   -17.5171 -17.4850 -17.4436 -17.4315 -17.4268 -17.4244 -17.4230 -17.4140
   -14.2941 -14.2878 -14.2857 -14.2817 -14.2767 -14.2746 -14.2735 -14.2710
   -14.2706 -14.2680 -14.2663 -14.2605 -14.2593 -14.2564 -14.2542 -14.2533
   -14.2489 -14.2483 -14.2448 -14.2446 -14.2443 -14.2430 -14.2428 -14.2424
   -14.2412 -14.2357 -14.2350 -14.2347 -14.2343 -14.2322 -14.2319 -14.2288
   -14.2263 -14.2257 -14.2247 -14.2230 -14.2178 -14.2165 -14.2145 -14.2073
   -10.4823 -10.4631 -10.4546 -10.4467 -10.4438 -10.4403 -10.4254 -10.4226
    -9.6479  -9.5741  -9.4960  -9.4864  -9.4095  -9.4018  -9.3318  -9.2988
    -9.2834  -9.2758  -9.2506  -9.2391  -9.2307  -9.1783  -9.1763  -9.1549
    -9.1343  -9.0985  -9.0869  -9.0761  -9.0480  -9.0255  -9.0128  -9.0050
    -6.9701  -6.9546  -6.9464  -6.9427  -6.9390  -6.9283  -6.9210  -6.9138
    -6.9073  -6.8697  -6.8120  -6.8031  -6.7996  -6.7836  -6.7759  -6.7711
    -5.7757  -5.5870  -5.3658  -5.3353  -5.1890  -5.1472  -4.9455  -4.8655
    -4.8280  -4.8125  -4.8040  -4.7984  -4.7924  -4.7828  -4.7655  -4.6828
    -2.7916  -2.7774  -2.7631  -2.7571  -2.7529  -2.7486  -2.7410  -2.7367
    -2.7265  -2.7249  -2.7182  -2.7099  -2.7020  -2.6972  -2.6943  -2.6893
    -0.8587  -0.8243  -0.7870  -0.7770  -0.7437  -0.7269  -0.6498  -0.5833
    -0.4327  -0.3839  -0.2813  -0.2259   0.0901   0.1469   0.2655   0.2872
     0.3199   0.3392   0.3524   0.3714   0.4506   0.4585   0.4761   0.5445
     0.5520   0.6242   0.6302   0.6461   0.7211   0.8163   0.8239   0.8341
     0.8927   0.9174   0.9297   0.9583   0.9763   0.9835   0.9960   1.0120
     1.0359   1.0533   1.0991   1.1146   1.1403   1.1580   1.1938   1.2056
     1.2186   1.2275   1.2434   1.2558   1.2654   1.2797   1.3010   1.3235
     1.3391   1.3514   1.4002   1.4249   1.4660   1.4830   1.4948   1.5197
     1.5584   1.5732   1.5842   1.5982   1.6228   1.6505   1.8126   1.8649

          k =-0.1249 0.3800-0.1289 (299653 PWs)   bands (ev):

   -17.5171 -17.4850 -17.4436 -17.4315 -17.4268 -17.4244 -17.4230 -17.4140
   -14.2941 -14.2878 -14.2857 -14.2817 -14.2767 -14.2746 -14.2735 -14.2710
   -14.2706 -14.2680 -14.2663 -14.2605 -14.2593 -14.2564 -14.2542 -14.2533
   -14.2489 -14.2483 -14.2448 -14.2446 -14.2443 -14.2430 -14.2428 -14.2424
   -14.2412 -14.2357 -14.2350 -14.2347 -14.2343 -14.2322 -14.2319 -14.2288
   -14.2263 -14.2257 -14.2247 -14.2230 -14.2178 -14.2165 -14.2145 -14.2073
   -10.4824 -10.4637 -10.4548 -10.4468 -10.4450 -10.4391 -10.4246 -10.4221
    -9.6584  -9.5616  -9.4878  -9.4758  -9.4294  -9.4066  -9.3330  -9.2925
    -9.2890  -9.2782  -9.2530  -9.2347  -9.2279  -9.1797  -9.1761  -9.1543
    -9.1328  -9.0949  -9.0873  -9.0745  -9.0516  -9.0297  -9.0140  -8.9998
    -6.9701  -6.9544  -6.9459  -6.9430  -6.9387  -6.9282  -6.9217  -6.9139
    -6.9077  -6.8697  -6.8120  -6.8031  -6.8001  -6.7820  -6.7771  -6.7710
    -5.7762  -5.5866  -5.3662  -5.3288  -5.1884  -5.1552  -4.9599  -4.8485
    -4.8285  -4.8165  -4.8028  -4.7970  -4.7884  -4.7814  -4.7612  -4.6914
    -2.7922  -2.7766  -2.7647  -2.7580  -2.7513  -2.7483  -2.7417  -2.7366
    -2.7257  -2.7239  -2.7209  -2.7103  -2.7024  -2.6970  -2.6929  -2.6885
    -0.8655  -0.8374  -0.7859  -0.7695  -0.7433  -0.7280  -0.6544  -0.5878
    -0.4189  -0.3618  -0.2580  -0.2125   0.0821   0.1071   0.2544   0.2717
     0.3234   0.3332   0.3656   0.3860   0.4263   0.4383   0.4624   0.5134
     0.5505   0.6260   0.6553   0.6904   0.7170   0.8194   0.8244   0.8367
     0.8936   0.9077   0.9264   0.9770   0.9816   0.9926   1.0062   1.0285
     1.0423   1.0571   1.0933   1.1096   1.1390   1.1460   1.1817   1.2012
     1.2158   1.2268   1.2441   1.2611   1.2645   1.2813   1.3020   1.3316
     1.3387   1.3566   1.3948   1.4170   1.4472   1.4726   1.4960   1.5268
     1.5438   1.5667   1.5801   1.5949   1.6272   1.6863   1.7928   1.9001

          k = 0.1249-0.3800-0.1289 (299653 PWs)   bands (ev):

   -17.5171 -17.4850 -17.4436 -17.4315 -17.4268 -17.4244 -17.4230 -17.4140
   -14.2941 -14.2878 -14.2857 -14.2817 -14.2767 -14.2746 -14.2735 -14.2710
   -14.2706 -14.2680 -14.2663 -14.2605 -14.2593 -14.2564 -14.2542 -14.2533
   -14.2489 -14.2483 -14.2448 -14.2446 -14.2443 -14.2430 -14.2428 -14.2424
   -14.2412 -14.2357 -14.2350 -14.2347 -14.2343 -14.2322 -14.2319 -14.2288
   -14.2263 -14.2257 -14.2247 -14.2230 -14.2178 -14.2165 -14.2145 -14.2073
   -10.4824 -10.4637 -10.4548 -10.4468 -10.4453 -10.4389 -10.4245 -10.4222
    -9.6589  -9.5606  -9.4868  -9.4759  -9.4299  -9.4092  -9.3302  -9.2962
    -9.2853  -9.2758  -9.2549  -9.2382  -9.2271  -9.1795  -9.1745  -9.1540
    -9.1336  -9.0949  -9.0876  -9.0749  -9.0511  -9.0289  -9.0149  -8.9997
    -6.9701  -6.9543  -6.9460  -6.9430  -6.9387  -6.9282  -6.9213  -6.9139
    -6.9081  -6.8696  -6.8120  -6.8031  -6.8001  -6.7821  -6.7771  -6.7709
    -5.7764  -5.5863  -5.3663  -5.3285  -5.1886  -5.1554  -4.9605  -4.8478
    -4.8283  -4.8165  -4.8029  -4.7970  -4.7883  -4.7811  -4.7611  -4.6919
    -2.7925  -2.7765  -2.7655  -2.7573  -2.7521  -2.7472  -2.7421  -2.7363
    -2.7285  -2.7232  -2.7205  -2.7076  -2.7023  -2.6971  -2.6930  -2.6893
    -0.8650  -0.8388  -0.7827  -0.7789  -0.7345  -0.7281  -0.6538  -0.5871
    -0.4207  -0.3645  -0.2581  -0.2141   0.0841   0.1101   0.2549   0.2723
     0.3226   0.3377   0.3659   0.3823   0.4251   0.4332   0.4574   0.5178
     0.5613   0.6249   0.6479   0.6917   0.7198   0.8195   0.8273   0.8367
     0.8962   0.9089   0.9252   0.9689   0.9822   0.9947   1.0011   1.0248
     1.0414   1.0566   1.0931   1.1115   1.1369   1.1514   1.1814   1.1996
     1.2169   1.2296   1.2416   1.2621   1.2705   1.2806   1.2976   1.3268
     1.3441   1.3561   1.4000   1.4104   1.4465   1.4728   1.4958   1.5308
     1.5451   1.5684   1.5761   1.5920   1.6299   1.6865   1.7924   1.9004

          k =-0.1249-0.3800 0.3866 (299641 PWs)   bands (ev):

   -17.5171 -17.4850 -17.4436 -17.4315 -17.4268 -17.4244 -17.4230 -17.4140
   -14.2933 -14.2864 -14.2842 -14.2824 -14.2770 -14.2756 -14.2738 -14.2721
   -14.2686 -14.2677 -14.2663 -14.2628 -14.2581 -14.2562 -14.2542 -14.2533
   -14.2498 -14.2483 -14.2456 -14.2446 -14.2443 -14.2431 -14.2428 -14.2424
   -14.2412 -14.2357 -14.2350 -14.2347 -14.2343 -14.2322 -14.2320 -14.2288
   -14.2263 -14.2257 -14.2247 -14.2231 -14.2178 -14.2165 -14.2145 -14.2073
   -10.4817 -10.4606 -10.4571 -10.4462 -10.4433 -10.4401 -10.4261 -10.4234
    -9.6140  -9.5540  -9.5413  -9.4791  -9.4608  -9.4007  -9.3789  -9.3330
    -9.2847  -9.2528  -9.2074  -9.2038  -9.1956  -9.1678  -9.1539  -9.1437
    -9.1223  -9.1144  -9.1082  -9.0698  -9.0660  -9.0432  -9.0202  -9.0075
    -6.9757  -6.9485  -6.9456  -6.9425  -6.9389  -6.9294  -6.9204  -6.9148
    -6.9049  -6.8756  -6.8067  -6.7974  -6.7919  -6.7860  -6.7817  -6.7758
    -5.6577  -5.4780  -5.4694  -5.2900  -5.2535  -5.0878  -5.0787  -4.9420
    -4.8273  -4.8129  -4.8033  -4.8003  -4.7902  -4.7835  -4.7698  -4.7486
    -2.7913  -2.7785  -2.7675  -2.7560  -2.7500  -2.7444  -2.7420  -2.7365
    -2.7271  -2.7251  -2.7174  -2.7072  -2.7012  -2.6976  -2.6950  -2.6885
    -0.7970  -0.7392  -0.7281  -0.6733  -0.5356  -0.4615  -0.4357  -0.3882
    -0.3100  -0.3001  -0.2888  -0.2656   0.0595   0.1009   0.1212   0.1450
     0.2126   0.2593   0.2717   0.3396   0.3743   0.4087   0.4297   0.4371
     0.5226   0.5435   0.6126   0.6375   0.7126   0.7303   0.7995   0.8291
     0.8650   0.8774   0.8987   0.9400   0.9611   0.9720   0.9957   1.0093
     1.0292   1.0347   1.0537   1.0607   1.1060   1.1196   1.1374   1.1581
     1.2079   1.2364   1.2480   1.2544   1.2648   1.2828   1.3064   1.3233
     1.3798   1.3875   1.4088   1.4389   1.4528   1.4665   1.4803   1.4973
     1.5164   1.5362   1.5757   1.5943   1.6146   1.6434   1.6653   1.7033

          k =-0.1249 0.3800-0.3866 (299641 PWs)   bands (ev):

   -17.5171 -17.4850 -17.4436 -17.4315 -17.4268 -17.4244 -17.4230 -17.4140
   -14.2933 -14.2864 -14.2842 -14.2824 -14.2770 -14.2756 -14.2738 -14.2720
   -14.2686 -14.2677 -14.2663 -14.2628 -14.2581 -14.2563 -14.2542 -14.2533
   -14.2498 -14.2483 -14.2456 -14.2446 -14.2443 -14.2431 -14.2428 -14.2424
   -14.2412 -14.2357 -14.2350 -14.2347 -14.2343 -14.2322 -14.2320 -14.2288
   -14.2263 -14.2257 -14.2247 -14.2231 -14.2178 -14.2165 -14.2145 -14.2073
   -10.4819 -10.4610 -10.4574 -10.4468 -10.4435 -10.4399 -10.4251 -10.4228
    -9.6226  -9.5584  -9.5315  -9.4712  -9.4447  -9.4006  -9.3920  -9.3482
    -9.2836  -9.2520  -9.2053  -9.2031  -9.1960  -9.1700  -9.1515  -9.1400
    -9.1242  -9.1143  -9.1027  -9.0748  -9.0680  -9.0473  -9.0160  -9.0051
    -6.9758  -6.9479  -6.9454  -6.9429  -6.9393  -6.9292  -6.9211  -6.9150
    -6.9049  -6.8756  -6.8067  -6.7974  -6.7921  -6.7853  -6.7820  -6.7758
    -5.6561  -5.4753  -5.4694  -5.2947  -5.2564  -5.0875  -5.0827  -4.9302
    -4.8291  -4.8168  -4.8032  -4.7999  -4.7889  -4.7835  -4.7682  -4.7505
    -2.7918  -2.7777  -2.7684  -2.7556  -2.7483  -2.7448  -2.7425  -2.7367
    -2.7271  -2.7246  -2.7200  -2.7079  -2.7017  -2.6966  -2.6939  -2.6880
    -0.8132  -0.7515  -0.7221  -0.6690  -0.5265  -0.4527  -0.4255  -0.3786
    -0.3175  -0.2983  -0.2742  -0.2491   0.0452   0.0804   0.1151   0.1430
     0.2063   0.2229   0.2963   0.3239   0.3710   0.4057   0.4303   0.4480
     0.5121   0.5565   0.6257   0.6416   0.6942   0.7282   0.7959   0.8153
     0.8642   0.8901   0.9310   0.9463   0.9719   0.9886   0.9949   1.0065
     1.0239   1.0373   1.0432   1.0551   1.0674   1.1179   1.1338   1.1801
     1.2011   1.2318   1.2456   1.2666   1.2794   1.2872   1.3008   1.3431
     1.3858   1.4019   1.4150   1.4373   1.4498   1.4634   1.4776   1.4851
     1.5134   1.5236   1.5346   1.5672   1.6034   1.6412   1.7012   1.7508

          k = 0.1249-0.3800-0.3866 (299641 PWs)   bands (ev):

   -17.5171 -17.4850 -17.4436 -17.4315 -17.4268 -17.4244 -17.4230 -17.4140
   -14.2933 -14.2864 -14.2842 -14.2824 -14.2770 -14.2756 -14.2738 -14.2721
   -14.2686 -14.2677 -14.2663 -14.2628 -14.2581 -14.2563 -14.2542 -14.2533
   -14.2498 -14.2483 -14.2456 -14.2446 -14.2443 -14.2431 -14.2428 -14.2424
   -14.2412 -14.2357 -14.2350 -14.2347 -14.2343 -14.2322 -14.2320 -14.2288
   -14.2263 -14.2257 -14.2247 -14.2231 -14.2178 -14.2165 -14.2145 -14.2073
   -10.4819 -10.4610 -10.4573 -10.4468 -10.4440 -10.4394 -10.4250 -10.4230
    -9.6239  -9.5574  -9.5278  -9.4755  -9.4459  -9.4009  -9.3902  -9.3469
    -9.2839  -9.2529  -9.2065  -9.2037  -9.1942  -9.1695  -9.1512  -9.1406
    -9.1227  -9.1145  -9.1042  -9.0770  -9.0665  -9.0456  -9.0171  -9.0048
    -6.9758  -6.9478  -6.9454  -6.9429  -6.9394  -6.9292  -6.9207  -6.9149
    -6.9054  -6.8754  -6.8067  -6.7975  -6.7920  -6.7854  -6.7821  -6.7757
    -5.6567  -5.4746  -5.4689  -5.2951  -5.2565  -5.0893  -5.0818  -4.9291
    -4.8292  -4.8168  -4.8030  -4.7999  -4.7890  -4.7830  -4.7687  -4.7509
    -2.7923  -2.7776  -2.7686  -2.7558  -2.7485  -2.7445  -2.7424  -2.7365
    -2.7285  -2.7249  -2.7197  -2.7059  -2.7011  -2.6969  -2.6940  -2.6886
    -0.8132  -0.7513  -0.7248  -0.6687  -0.5208  -0.4455  -0.4211  -0.3788
    -0.3257  -0.2972  -0.2793  -0.2636   0.0491   0.0850   0.1273   0.1454
     0.2066   0.2246   0.2926   0.3133   0.3714   0.4103   0.4318   0.4435
     0.5089   0.5594   0.6270   0.6438   0.6947   0.7269   0.7948   0.8119
     0.8592   0.8928   0.9337   0.9511   0.9684   0.9885   0.9939   1.0075
     1.0227   1.0353   1.0453   1.0553   1.0650   1.1180   1.1375   1.1756
     1.2007   1.2361   1.2529   1.2656   1.2780   1.2869   1.2958   1.3407
     1.3899   1.3960   1.4166   1.4362   1.4527   1.4602   1.4735   1.4901
     1.5090   1.5310   1.5400   1.5630   1.6036   1.6401   1.7019   1.7503

          k =-0.3746-0.1267 0.1289 (299706 PWs)   bands (ev):

   -17.5171 -17.4850 -17.4436 -17.4314 -17.4269 -17.4244 -17.4230 -17.4140
   -14.2929 -14.2880 -14.2864 -14.2808 -14.2782 -14.2756 -14.2753 -14.2713
   -14.2704 -14.2668 -14.2640 -14.2607 -14.2595 -14.2563 -14.2542 -14.2533
   -14.2494 -14.2483 -14.2446 -14.2443 -14.2443 -14.2431 -14.2428 -14.2424
   -14.2413 -14.2357 -14.2349 -14.2347 -14.2343 -14.2322 -14.2319 -14.2288
   -14.2263 -14.2257 -14.2247 -14.2230 -14.2178 -14.2165 -14.2145 -14.2073
   -10.4832 -10.4629 -10.4554 -10.4493 -10.4414 -10.4398 -10.4249 -10.4214
    -9.6461  -9.5882  -9.4892  -9.4814  -9.4153  -9.4044  -9.3307  -9.2951
    -9.2870  -9.2760  -9.2453  -9.2321  -9.1999  -9.1847  -9.1799  -9.1507
    -9.1291  -9.1137  -9.1043  -9.0893  -9.0514  -9.0229  -9.0185  -8.9880
    -6.9703  -6.9546  -6.9464  -6.9422  -6.9386  -6.9283  -6.9208  -6.9141
    -6.9072  -6.8703  -6.8123  -6.8032  -6.7997  -6.7836  -6.7749  -6.7712
    -5.7832  -5.6090  -5.3445  -5.3393  -5.1798  -5.1675  -4.9237  -4.8618
    -4.8298  -4.8075  -4.8053  -4.8002  -4.7876  -4.7774  -4.7721  -4.6779
    -2.7971  -2.7713  -2.7686  -2.7580  -2.7521  -2.7487  -2.7396  -2.7360
    -2.7271  -2.7222  -2.7144  -2.7082  -2.7038  -2.7003  -2.6952  -2.6891
    -0.8634  -0.8201  -0.8067  -0.7616  -0.7444  -0.7064  -0.6351  -0.6029
    -0.4496  -0.3771  -0.2986  -0.2245   0.0867   0.1596   0.2700   0.2816
     0.3116   0.3248   0.3531   0.3654   0.4277   0.4428   0.4615   0.5248
     0.5486   0.6123   0.6198   0.6587   0.7073   0.7859   0.8213   0.8286
     0.8792   0.8955   0.9297   0.9767   0.9875   1.0107   1.0191   1.0328
     1.0586   1.0684   1.0973   1.1074   1.1232   1.1541   1.1974   1.2043
     1.2261   1.2325   1.2430   1.2570   1.2689   1.2816   1.2876   1.3138
     1.3293   1.3488   1.3845   1.4239   1.4528   1.4767   1.5021   1.5477
     1.5604   1.5898   1.5951   1.6027   1.6355   1.6429   1.8749   1.9029

          k =-0.3746 0.1267-0.1289 (299706 PWs)   bands (ev):

   -17.5171 -17.4850 -17.4436 -17.4314 -17.4269 -17.4244 -17.4230 -17.4140
   -14.2929 -14.2880 -14.2864 -14.2808 -14.2782 -14.2756 -14.2753 -14.2713
   -14.2704 -14.2668 -14.2640 -14.2607 -14.2595 -14.2563 -14.2542 -14.2533
   -14.2494 -14.2483 -14.2446 -14.2443 -14.2443 -14.2431 -14.2428 -14.2424
   -14.2413 -14.2357 -14.2349 -14.2347 -14.2343 -14.2322 -14.2319 -14.2288
   -14.2263 -14.2257 -14.2247 -14.2230 -14.2178 -14.2165 -14.2145 -14.2073
   -10.4834 -10.4636 -10.4556 -10.4490 -10.4429 -10.4388 -10.4238 -10.4210
    -9.6585  -9.5729  -9.4846  -9.4649  -9.4345  -9.4138  -9.3266  -9.3018
    -9.2845  -9.2751  -9.2457  -9.2304  -9.2012  -9.1885  -9.1762  -9.1500
    -9.1281  -9.1105  -9.0997  -9.0901  -9.0582  -9.0241  -9.0167  -8.9864
    -6.9703  -6.9544  -6.9461  -6.9423  -6.9384  -6.9281  -6.9215  -6.9142
    -6.9076  -6.8703  -6.8123  -6.8032  -6.8001  -6.7822  -6.7760  -6.7709
    -5.7837  -5.6086  -5.3427  -5.3352  -5.1800  -5.1744  -4.9404  -4.8442
    -4.8303  -4.8119  -4.8049  -4.7968  -4.7832  -4.7753  -4.7679  -4.6868
    -2.7974  -2.7715  -2.7680  -2.7594  -2.7517  -2.7495  -2.7373  -2.7351
    -2.7276  -2.7247  -2.7163  -2.7071  -2.7032  -2.7005  -2.6932  -2.6891
    -0.8717  -0.8264  -0.8107  -0.7571  -0.7434  -0.7052  -0.6399  -0.6070
    -0.4342  -0.3580  -0.2736  -0.2124   0.0780   0.1207   0.2488   0.2688
     0.3187   0.3322   0.3571   0.3715   0.4136   0.4239   0.4444   0.5121
     0.5389   0.6165   0.6335   0.6833   0.7276   0.7869   0.8119   0.8404
     0.8692   0.9120   0.9591   0.9745   0.9913   0.9991   1.0176   1.0336
     1.0600   1.0776   1.0956   1.1106   1.1268   1.1446   1.1931   1.2061
     1.2241   1.2333   1.2409   1.2549   1.2715   1.2758   1.2837   1.3126
     1.3289   1.3535   1.3772   1.4250   1.4379   1.4751   1.4992   1.5452
     1.5681   1.5801   1.5850   1.5969   1.6189   1.6974   1.8532   1.9374

          k = 0.3746-0.1267-0.1289 (299706 PWs)   bands (ev):

   -17.5171 -17.4850 -17.4436 -17.4314 -17.4269 -17.4244 -17.4230 -17.4140
   -14.2929 -14.2880 -14.2864 -14.2808 -14.2782 -14.2756 -14.2753 -14.2713
   -14.2704 -14.2668 -14.2640 -14.2607 -14.2595 -14.2563 -14.2542 -14.2533
   -14.2494 -14.2483 -14.2446 -14.2443 -14.2443 -14.2431 -14.2428 -14.2424
   -14.2413 -14.2357 -14.2349 -14.2347 -14.2343 -14.2322 -14.2319 -14.2288
   -14.2263 -14.2257 -14.2247 -14.2230 -14.2178 -14.2165 -14.2145 -14.2073
   -10.4834 -10.4635 -10.4556 -10.4491 -10.4429 -10.4387 -10.4238 -10.4210
    -9.6581  -9.5739  -9.4856  -9.4637  -9.4346  -9.4112  -9.3305  -9.2998
    -9.2858  -9.2748  -9.2438  -9.2316  -9.2008  -9.1858  -9.1794  -9.1491
    -9.1291  -9.1104  -9.0989  -9.0902  -9.0588  -9.0236  -9.0169  -8.9863
    -6.9703  -6.9543  -6.9461  -6.9423  -6.9384  -6.9281  -6.9211  -6.9142
    -6.9081  -6.8701  -6.8123  -6.8032  -6.8001  -6.7822  -6.7760  -6.7709
    -5.7838  -5.6086  -5.3426  -5.3349  -5.1802  -5.1743  -4.9401  -4.8445
    -4.8303  -4.8119  -4.8049  -4.7970  -4.7833  -4.7754  -4.7681  -4.6865
    -2.7975  -2.7728  -2.7677  -2.7588  -2.7522  -2.7492  -2.7376  -2.7359
    -2.7271  -2.7233  -2.7176  -2.7057  -2.7033  -2.7006  -2.6933  -2.6892
    -0.8669  -0.8316  -0.8087  -0.7563  -0.7450  -0.7078  -0.6403  -0.6077
    -0.4317  -0.3566  -0.2739  -0.2123   0.0772   0.1182   0.2586   0.2654
     0.3179   0.3299   0.3571   0.3721   0.4131   0.4260   0.4499   0.5095
     0.5305   0.6134   0.6414   0.6795   0.7294   0.7861   0.8093   0.8304
     0.8672   0.9193   0.9632   0.9722   0.9993   1.0064   1.0213   1.0310
     1.0540   1.0778   1.0928   1.1104   1.1264   1.1398   1.1925   1.2072
     1.2296   1.2327   1.2373   1.2549   1.2725   1.2774   1.2840   1.3102
     1.3384   1.3504   1.3770   1.4226   1.4389   1.4728   1.4964   1.5465
     1.5648   1.5791   1.5895   1.5982   1.6183   1.6965   1.8532   1.9373

          k =-0.3746-0.1267 0.3866 (299714 PWs)   bands (ev):

   -17.5171 -17.4850 -17.4436 -17.4314 -17.4268 -17.4244 -17.4230 -17.4140
   -14.2920 -14.2869 -14.2846 -14.2815 -14.2785 -14.2769 -14.2749 -14.2731
   -14.2679 -14.2666 -14.2643 -14.2620 -14.2595 -14.2556 -14.2542 -14.2533
   -14.2504 -14.2483 -14.2451 -14.2446 -14.2443 -14.2431 -14.2428 -14.2424
   -14.2413 -14.2356 -14.2350 -14.2347 -14.2343 -14.2322 -14.2320 -14.2288
   -14.2263 -14.2257 -14.2247 -14.2231 -14.2178 -14.2165 -14.2145 -14.2073
   -10.4824 -10.4617 -10.4571 -10.4471 -10.4417 -10.4412 -10.4249 -10.4223
    -9.6114  -9.5556  -9.5493  -9.4884  -9.4548  -9.3986  -9.3852  -9.3409
    -9.2459  -9.2262  -9.2121  -9.1986  -9.1897  -9.1785  -9.1591  -9.1542
    -9.1306  -9.1281  -9.1098  -9.0794  -9.0686  -9.0394  -9.0192  -9.0000
    -6.9759  -6.9480  -6.9458  -6.9425  -6.9382  -6.9293  -6.9206  -6.9152
    -6.9047  -6.8757  -6.8067  -6.7978  -6.7921  -6.7854  -6.7817  -6.7758
    -5.6652  -5.4928  -5.4828  -5.3108  -5.2297  -5.0791  -5.0553  -4.9343
    -4.8272  -4.8078  -4.8042  -4.7970  -4.7923  -4.7828  -4.7727  -4.7484
    -2.7963  -2.7697  -2.7620  -2.7584  -2.7501  -2.7475  -2.7438  -2.7337
    -2.7264  -2.7216  -2.7142  -2.7097  -2.7045  -2.6999  -2.6973  -2.6918
    -0.7881  -0.7427  -0.7258  -0.6740  -0.5285  -0.4509  -0.4268  -0.4002
    -0.3412  -0.3036  -0.2774  -0.2627   0.0580   0.0707   0.1174   0.1502
     0.2131   0.2357   0.2530   0.3239   0.4049   0.4087   0.4260   0.4310
     0.5269   0.5658   0.6163   0.6540   0.6784   0.7178   0.7438   0.7937
     0.8100   0.8691   0.8798   0.9097   0.9251   0.9750   1.0082   1.0297
     1.0373   1.0504   1.0575   1.0733   1.1234   1.1399   1.1634   1.1691
     1.2188   1.2489   1.2565   1.2667   1.2803   1.3006   1.3159   1.3295
     1.3575   1.3792   1.3963   1.4187   1.4480   1.4740   1.4765   1.5273
     1.5364   1.5601   1.5753   1.5934   1.6284   1.6514   1.6969   1.7267

          k =-0.3746 0.1267-0.3866 (299714 PWs)   bands (ev):

   -17.5171 -17.4850 -17.4436 -17.4314 -17.4268 -17.4244 -17.4230 -17.4140
   -14.2920 -14.2869 -14.2846 -14.2815 -14.2785 -14.2769 -14.2749 -14.2731
   -14.2679 -14.2666 -14.2643 -14.2620 -14.2595 -14.2556 -14.2542 -14.2533
   -14.2504 -14.2483 -14.2451 -14.2446 -14.2443 -14.2431 -14.2428 -14.2424
   -14.2413 -14.2356 -14.2350 -14.2347 -14.2343 -14.2322 -14.2320 -14.2288
   -14.2263 -14.2257 -14.2247 -14.2231 -14.2178 -14.2165 -14.2145 -14.2073
   -10.4825 -10.4621 -10.4574 -10.4469 -10.4428 -10.4407 -10.4237 -10.4218
    -9.6226  -9.5550  -9.5395  -9.4830  -9.4401  -9.4065  -9.3856  -9.3571
    -9.2448  -9.2249  -9.2120  -9.2022  -9.1907  -9.1781  -9.1574  -9.1494
    -9.1337  -9.1210  -9.1100  -9.0832  -9.0706  -9.0424  -9.0159  -8.9980
    -6.9760  -6.9472  -6.9459  -6.9428  -6.9386  -6.9290  -6.9213  -6.9152
    -6.9048  -6.8756  -6.8067  -6.7977  -6.7924  -6.7846  -6.7821  -6.7758
    -5.6636  -5.4937  -5.4792  -5.3154  -5.2331  -5.0760  -5.0624  -4.9214
    -4.8290  -4.8120  -4.8050  -4.7959  -4.7904  -4.7829  -4.7712  -4.7508
    -2.7967  -2.7689  -2.7642  -2.7562  -2.7507  -2.7480  -2.7405  -2.7346
    -2.7277  -2.7228  -2.7171  -2.7088  -2.7043  -2.6989  -2.6961  -2.6916
    -0.8058  -0.7412  -0.7358  -0.6713  -0.5081  -0.4379  -0.4153  -0.3834
    -0.3599  -0.2986  -0.2686  -0.2552   0.0459   0.0524   0.1252   0.1403
     0.1936   0.2273   0.2551   0.3028   0.4015   0.4074   0.4315   0.4431
     0.5127   0.5835   0.6328   0.6569   0.6789   0.7096   0.7340   0.7824
     0.8118   0.8625   0.8879   0.9378   0.9481   0.9796   0.9983   1.0166
     1.0288   1.0394   1.0566   1.0806   1.0998   1.1490   1.1627   1.1922
     1.2148   1.2478   1.2628   1.2686   1.2792   1.2936   1.3155   1.3606
     1.3652   1.3737   1.3842   1.4177   1.4590   1.4798   1.4890   1.5140
     1.5239   1.5374   1.5605   1.5746   1.5968   1.6732   1.7131   1.7698

          k = 0.3746-0.1267-0.3866 (299714 PWs)   bands (ev):

   -17.5171 -17.4850 -17.4436 -17.4314 -17.4268 -17.4244 -17.4230 -17.4140
   -14.2920 -14.2869 -14.2846 -14.2815 -14.2785 -14.2769 -14.2749 -14.2731
   -14.2679 -14.2666 -14.2643 -14.2620 -14.2595 -14.2556 -14.2542 -14.2533
   -14.2504 -14.2483 -14.2451 -14.2446 -14.2443 -14.2431 -14.2428 -14.2424
   -14.2413 -14.2356 -14.2350 -14.2347 -14.2343 -14.2322 -14.2320 -14.2288
   -14.2263 -14.2257 -14.2247 -14.2231 -14.2178 -14.2165 -14.2145 -14.2073
   -10.4825 -10.4621 -10.4574 -10.4470 -10.4428 -10.4406 -10.4238 -10.4218
    -9.6215  -9.5569  -9.5417  -9.4796  -9.4371  -9.4072  -9.3895  -9.3559
    -9.2455  -9.2238  -9.2138  -9.1993  -9.1918  -9.1783  -9.1562  -9.1506
    -9.1333  -9.1226  -9.1073  -9.0856  -9.0703  -9.0415  -9.0162  -8.9979
    -6.9760  -6.9471  -6.9459  -6.9428  -6.9387  -6.9290  -6.9208  -6.9152
    -6.9053  -6.8755  -6.8067  -6.7978  -6.7922  -6.7848  -6.7822  -6.7756
    -5.6638  -5.4943  -5.4786  -5.3155  -5.2325  -5.0760  -5.0628  -4.9215
    -4.8291  -4.8121  -4.8050  -4.7960  -4.7907  -4.7826  -4.7713  -4.7505
    -2.7967  -2.7699  -2.7646  -2.7552  -2.7513  -2.7477  -2.7409  -2.7338
    -2.7291  -2.7204  -2.7193  -2.7063  -2.7048  -2.6987  -2.6962  -2.6921
    -0.8050  -0.7415  -0.7327  -0.6717  -0.5191  -0.4411  -0.4173  -0.3864
    -0.3479  -0.2978  -0.2657  -0.2498   0.0430   0.0556   0.1180   0.1415
     0.1906   0.2268   0.2563   0.3068   0.4001   0.4084   0.4303   0.4440
     0.5184   0.5780   0.6331   0.6432   0.6798   0.7108   0.7398   0.7839
     0.8124   0.8630   0.8918   0.9328   0.9512   0.9802   0.9993   1.0143
     1.0276   1.0460   1.0573   1.0828   1.0911   1.1483   1.1650   1.1956
     1.2131   1.2516   1.2591   1.2697   1.2782   1.2916   1.3178   1.3548
     1.3677   1.3733   1.3892   1.4132   1.4603   1.4783   1.4904   1.5151
     1.5223   1.5322   1.5667   1.5724   1.5980   1.6735   1.7128   1.7697

          k =-0.3746-0.3800 0.1289 (299650 PWs)   bands (ev):

   -17.5171 -17.4850 -17.4436 -17.4314 -17.4269 -17.4244 -17.4230 -17.4140
   -14.2929 -14.2874 -14.2863 -14.2805 -14.2778 -14.2747 -14.2745 -14.2706
   -14.2706 -14.2675 -14.2650 -14.2609 -14.2598 -14.2572 -14.2542 -14.2533
   -14.2495 -14.2483 -14.2448 -14.2446 -14.2443 -14.2430 -14.2428 -14.2424
   -14.2413 -14.2357 -14.2350 -14.2347 -14.2343 -14.2322 -14.2319 -14.2288
   -14.2263 -14.2257 -14.2247 -14.2230 -14.2178 -14.2165 -14.2145 -14.2073
   -10.4823 -10.4633 -10.4549 -10.4457 -10.4440 -10.4403 -10.4252 -10.4227
    -9.6058  -9.5696  -9.5476  -9.4560  -9.4518  -9.3973  -9.3804  -9.3269
    -9.2891  -9.2758  -9.2482  -9.2377  -9.1854  -9.1468  -9.1388  -9.1213
    -9.1126  -9.1073  -9.0926  -9.0844  -9.0567  -9.0415  -9.0362  -9.0130
    -6.9701  -6.9548  -6.9465  -6.9420  -6.9389  -6.9284  -6.9209  -6.9139
    -6.9062  -6.8699  -6.8119  -6.8030  -6.7991  -6.7843  -6.7750  -6.7726
    -5.6664  -5.5032  -5.4739  -5.3164  -5.2394  -5.0680  -5.0395  -4.9443
    -4.8307  -4.8143  -4.8020  -4.7953  -4.7920  -4.7804  -4.7696  -4.7399
    -2.7901  -2.7750  -2.7624  -2.7550  -2.7480  -2.7468  -2.7399  -2.7373
    -2.7278  -2.7268  -2.7172  -2.7111  -2.7072  -2.7007  -2.6953  -2.6888
    -0.8321  -0.7933  -0.7569  -0.7053  -0.4982  -0.4667  -0.4443  -0.3369
    -0.3262  -0.2988  -0.2712  -0.2291   0.0653   0.1292   0.1448   0.2200
     0.2810   0.2980   0.3184   0.3234   0.3473   0.3731   0.3914   0.4414
[...]

          k =-0.3745-0.3798 0.3867 (299686 PWs)   bands (ev):

   -17.5204 -17.4915 -17.4539 -17.4325 -17.4315 -17.4297 -17.4260 -17.4200
   -14.2959 -14.2903 -14.2884 -14.2860 -14.2830 -14.2812 -14.2782 -14.2759
   -14.2733 -14.2724 -14.2715 -14.2687 -14.2651 -14.2618 -14.2584 -14.2574
   -14.2553 -14.2523 -14.2504 -14.2490 -14.2485 -14.2481 -14.2480 -14.2474
   -14.2451 -14.2401 -14.2399 -14.2394 -14.2391 -14.2385 -14.2372 -14.2357
   -14.2321 -14.2307 -14.2303 -14.2297 -14.2232 -14.2215 -14.2195 -14.2121
   -10.4881 -10.4647 -10.4602 -10.4513 -10.4485 -10.4455 -10.4295 -10.4276
    -9.5776  -9.5386  -9.5211  -9.5179  -9.4724  -9.4551  -9.4330  -9.3844
    -9.2501  -9.2205  -9.2007  -9.1904  -9.1795  -9.1597  -9.1458  -9.1394
    -9.1258  -9.1174  -9.0961  -9.0802  -9.0717  -9.0577  -9.0456  -9.0199
    -6.9799  -6.9527  -6.9507  -6.9450  -6.9408  -6.9357  -6.9244  -6.9200
    -6.9082  -6.8825  -6.8182  -6.8015  -6.7969  -6.7930  -6.7870  -6.7828
    -5.5565  -5.3928  -5.3788  -5.3649  -5.2196  -5.2102  -5.1847  -5.0588
    -4.8356  -4.8170  -4.8056  -4.8011  -4.7975  -4.7887  -4.7743  -4.7690
    -2.7942  -2.7811  -2.7725  -2.7560  -2.7513  -2.7499  -2.7478  -2.7425
    -2.7351  -2.7303  -2.7202  -2.7140  -2.7104  -2.7045  -2.7004  -2.6951
    -0.5504  -0.5367  -0.5013  -0.4478  -0.4285  -0.3775  -0.3629  -0.3427
    -0.3293  -0.3121  -0.2963  -0.2062   0.0573   0.0734   0.1006   0.1189
     0.1859   0.2045   0.2225   0.2284   0.2738   0.2801   0.2964   0.3602
     0.5889   0.6017   0.6197   0.6344   0.6751   0.7040   0.7298   0.7477
     0.7634   0.7897   0.8310   0.8650   0.8748   0.8932   0.9048   0.9198
     0.9514   0.9666   0.9836   1.0051   1.0348   1.0521   1.0727   1.0864
     1.2336   1.2653   1.2736   1.2823   1.2994   1.3178   1.3345   1.3500
     1.3953   1.4107   1.4206   1.4285   1.4453   1.4617   1.4685   1.4960
     1.5046   1.5296   1.5423   1.5535   1.5655   1.5801   1.5858   1.5948

          k =-0.3745 0.3798-0.3867 (299686 PWs)   bands (ev):

   -17.5204 -17.4915 -17.4539 -17.4325 -17.4315 -17.4297 -17.4260 -17.4200
   -14.2959 -14.2903 -14.2884 -14.2860 -14.2830 -14.2812 -14.2782 -14.2759
   -14.2733 -14.2724 -14.2715 -14.2687 -14.2651 -14.2618 -14.2584 -14.2574
   -14.2553 -14.2523 -14.2504 -14.2490 -14.2485 -14.2481 -14.2480 -14.2474
   -14.2451 -14.2401 -14.2399 -14.2394 -14.2391 -14.2385 -14.2372 -14.2357
   -14.2321 -14.2307 -14.2303 -14.2297 -14.2232 -14.2215 -14.2195 -14.2121
   -10.4883 -10.4652 -10.4605 -10.4516 -10.4486 -10.4453 -10.4288 -10.4268
    -9.5985  -9.5329  -9.5103  -9.4973  -9.4619  -9.4572  -9.4407  -9.4051
    -9.2490  -9.2210  -9.2014  -9.1907  -9.1804  -9.1579  -9.1490  -9.1365
    -9.1253  -9.1001  -9.0978  -9.0898  -9.0783  -9.0660  -9.0369  -9.0168
    -6.9800  -6.9520  -6.9508  -6.9453  -6.9409  -6.9357  -6.9250  -6.9202
    -6.9081  -6.8825  -6.8182  -6.8014  -6.7973  -6.7925  -6.7871  -6.7828
    -5.5523  -5.3913  -5.3769  -5.3679  -5.2203  -5.2117  -5.2030  -5.0391
    -4.8373  -4.8205  -4.8068  -4.8006  -4.7963  -4.7900  -4.7727  -4.7681
    -2.7949  -2.7802  -2.7732  -2.7564  -2.7509  -2.7498  -2.7462  -2.7424
    -2.7355  -2.7302  -2.7246  -2.7147  -2.7095  -2.7030  -2.6995  -2.6948
    -0.6219  -0.5430  -0.4867  -0.4574  -0.4247  -0.3754  -0.3469  -0.3281
    -0.2886  -0.2729  -0.2091  -0.1777  -0.0088   0.0160   0.0590   0.0780
     0.1157   0.2037   0.2089   0.2237   0.3025   0.3271   0.3382   0.3499
     0.5514   0.6131   0.6281   0.6673   0.6786   0.7055   0.7320   0.7440
     0.7660   0.8071   0.8329   0.8433   0.8805   0.8962   0.8981   0.9217
     0.9544   0.9684   0.9882   0.9998   1.0227   1.0388   1.0866   1.1156
     1.2335   1.2626   1.2760   1.2864   1.2963   1.3106   1.3293   1.3726
     1.3962   1.4139   1.4238   1.4317   1.4436   1.4591   1.4602   1.4703
     1.4983   1.5115   1.5226   1.5311   1.5400   1.5628   1.6400   1.6598

          k = 0.3745-0.3798-0.3867 (299686 PWs)   bands (ev):

   -17.5204 -17.4915 -17.4539 -17.4325 -17.4315 -17.4297 -17.4260 -17.4200
   -14.2959 -14.2903 -14.2884 -14.2860 -14.2830 -14.2812 -14.2782 -14.2759
   -14.2733 -14.2724 -14.2715 -14.2687 -14.2651 -14.2618 -14.2584 -14.2574
   -14.2553 -14.2523 -14.2504 -14.2490 -14.2485 -14.2481 -14.2480 -14.2474
   -14.2451 -14.2401 -14.2399 -14.2394 -14.2391 -14.2385 -14.2372 -14.2357
   -14.2321 -14.2307 -14.2303 -14.2297 -14.2232 -14.2215 -14.2195 -14.2121
   -10.4883 -10.4652 -10.4605 -10.4516 -10.4488 -10.4450 -10.4288 -10.4268
    -9.5986  -9.5334  -9.5121  -9.4932  -9.4628  -9.4542  -9.4458  -9.4035
    -9.2498  -9.2199  -9.2025  -9.1926  -9.1777  -9.1588  -9.1474  -9.1335
    -9.1276  -9.1043  -9.0968  -9.0889  -9.0800  -9.0628  -9.0376  -9.0168
    -6.9800  -6.9521  -6.9508  -6.9452  -6.9412  -6.9356  -6.9244  -6.9200
    -6.9089  -6.8822  -6.8182  -6.8015  -6.7971  -6.7925  -6.7873  -6.7827
    -5.5526  -5.3920  -5.3763  -5.3670  -5.2213  -5.2101  -5.2043  -5.0387
    -4.8373  -4.8206  -4.8068  -4.8006  -4.7966  -4.7896  -4.7731  -4.7678
    -2.7951  -2.7805  -2.7735  -2.7563  -2.7525  -2.7491  -2.7445  -2.7428
    -2.7355  -2.7307  -2.7250  -2.7130  -2.7092  -2.7034  -2.6994  -2.6953
    -0.6158  -0.5480  -0.4851  -0.4628  -0.4294  -0.3734  -0.3370  -0.3266
    -0.2942  -0.2790  -0.2069  -0.1798   0.0002   0.0243   0.0555   0.0761
     0.1158   0.1984   0.2147   0.2212   0.3060   0.3238   0.3325   0.3498
     0.5525   0.6097   0.6318   0.6669   0.6805   0.7011   0.7313   0.7430
     0.7653   0.8018   0.8346   0.8481   0.8818   0.8954   0.9085   0.9194
     0.9507   0.9663   0.9870   1.0014   1.0239   1.0397   1.0855   1.1164
     1.2324   1.2632   1.2767   1.2848   1.2968   1.3072   1.3357   1.3702
     1.3953   1.4138   1.4236   1.4301   1.4458   1.4525   1.4560   1.4752
     1.4991   1.5161   1.5243   1.5306   1.5392   1.5633   1.6389   1.6597

     highest occupied level (ev):     2.0675

!    total energy              =  -16491.15685636 Ry
     Harris-Foulkes estimate   =  -16491.15685636 Ry
     estimated scf accuracy    <          2.9E-10 Ry

     total all-electron energy =   -677247.826121 Ry

     The total energy is the sum of the following terms:

     one-electron contribution =    -827.40690565 Ry
     hartree contribution      =     599.57232743 Ry
     xc contribution           =    -755.73120883 Ry
     ewald contribution        =   -1152.76230908 Ry
     DFT-D3 Dispersion         =      -0.62559416 Ry
     one-center paw contrib.   =  -14354.20316608 Ry

     convergence has been achieved in   7 iterations

     Forces acting on atoms (cartesian axes, Ry/au):

     atom    1 type  1   force =    -0.00003897    0.00000535    0.00007349
     atom    2 type  1   force =     0.00003481   -0.00016988   -0.00006123
     atom    3 type  1   force =     0.00003149   -0.00002048   -0.00006386
     atom    4 type  1   force =    -0.00005224    0.00014800    0.00003340
     atom    5 type  1   force =    -0.00000179    0.00003144    0.00001188
     atom    6 type  1   force =    -0.00003376    0.00016765   -0.00009463
     atom    7 type  1   force =     0.00000581    0.00003594   -0.00004148
     atom    8 type  1   force =     0.00008596   -0.00010291   -0.00004121
     atom    9 type  2   force =     0.00005452   -0.00000779    0.00001309
     atom   10 type  2   force =    -0.00000054   -0.00006058   -0.00010352
     atom   11 type  2   force =    -0.00000212    0.00001287   -0.00002166
     atom   12 type  2   force =    -0.00003622   -0.00000283   -0.00005477
     atom   13 type  2   force =     0.00003040   -0.00008212   -0.00000025
     atom   14 type  2   force =     0.00001160    0.00003687    0.00001440
     atom   15 type  2   force =     0.00003362   -0.00003121   -0.00007194
     atom   16 type  2   force =     0.00002952    0.00001246    0.00004941
     atom   17 type  2   force =     0.00000701    0.00002994   -0.00005713
     atom   18 type  2   force =    -0.00017184    0.00007325    0.00000492
     atom   19 type  2   force =    -0.00003710   -0.00002789   -0.00006354
     atom   20 type  2   force =     0.00002049   -0.00000155    0.00008241
     atom   21 type  2   force =    -0.00007187   -0.00004165   -0.00006943
     atom   22 type  2   force =     0.00000908   -0.00001814    0.00004438
     atom   23 type  2   force =     0.00008066   -0.00000804    0.00002116
     atom   24 type  2   force =     0.00001685    0.00004211    0.00003783
     atom   25 type  2   force =    -0.00001349   -0.00008440   -0.00005533
     atom   26 type  2   force =    -0.00005301    0.00001689    0.00006957
     atom   27 type  2   force =    -0.00009223    0.00008487    0.00002682
     atom   28 type  2   force =    -0.00004026   -0.00013265   -0.00007282
     atom   29 type  2   force =    -0.00000599   -0.00006473    0.00014859
     atom   30 type  2   force =     0.00004228    0.00003869   -0.00008133
     atom   31 type  2   force =     0.00003727   -0.00005815   -0.00001175
     atom   32 type  2   force =     0.00010667    0.00003092   -0.00003079
     atom   33 type  3   force =    -0.00011305   -0.00010168    0.00009255
     atom   34 type  3   force =     0.00009266    0.00014518    0.00002341
     atom   35 type  3   force =    -0.00026645   -0.00006100   -0.00003868
     atom   36 type  3   force =     0.00000853   -0.00006559    0.00008387
     atom   37 type  3   force =    -0.00014166    0.00003525    0.00008955
     atom   38 type  3   force =    -0.00015788   -0.00005805    0.00004620
     atom   39 type  3   force =    -0.00006291    0.00000945    0.00000577
     atom   40 type  3   force =    -0.00003765    0.00003176   -0.00012569
     atom   41 type  4   force =    -0.00018659   -0.00008596   -0.00005077
     atom   42 type  4   force =     0.00013528   -0.00002089   -0.00001404
     atom   43 type  4   force =    -0.00029291   -0.00001215   -0.00001365
     atom   44 type  4   force =    -0.00005017   -0.00007414   -0.00003950
     atom   45 type  4   force =    -0.00002607   -0.00015625   -0.00018411
     atom   46 type  4   force =    -0.00003238   -0.00020317   -0.00007936
     atom   47 type  4   force =     0.00000878   -0.00011053   -0.00005631
     atom   48 type  4   force =     0.00002776   -0.00004878    0.00013593
     atom   49 type  5   force =    -0.00002771    0.00005851   -0.00002436
     atom   50 type  5   force =    -0.00006658    0.00005974    0.00010315
     atom   51 type  5   force =     0.00019444   -0.00008294   -0.00012433
     atom   52 type  5   force =     0.00000782    0.00011317    0.00025681
     atom   53 type  5   force =     0.00005505    0.00007380   -0.00019697
     atom   54 type  5   force =    -0.00005585    0.00004292   -0.00002825
     atom   55 type  5   force =     0.00001238   -0.00000090    0.00001738
     atom   56 type  5   force =    -0.00001291   -0.00018799    0.00000773
     atom   57 type  5   force =    -0.00002962    0.00003201   -0.00004151
     atom   58 type  5   force =    -0.00001432    0.00004930   -0.00004831
     atom   59 type  5   force =     0.00014024    0.00005842    0.00007505
     atom   60 type  5   force =    -0.00007975   -0.00001522    0.00014607
     atom   61 type  5   force =     0.00031009   -0.00018412   -0.00010667
     atom   62 type  5   force =    -0.00011981    0.00007073    0.00009325
     atom   63 type  5   force =     0.00021409   -0.00015495    0.00001853
     atom   64 type  5   force =     0.00030494    0.00001055   -0.00005881
     atom   65 type  5   force =    -0.00025052    0.00036069    0.00008083
     atom   66 type  5   force =     0.00018374   -0.00011738    0.00002482
     atom   67 type  5   force =    -0.00012099    0.00002650   -0.00005204
     atom   68 type  5   force =    -0.00003446    0.00010191   -0.00005239
     atom   69 type  5   force =     0.00016637    0.00006254    0.00009167
     atom   70 type  5   force =     0.00013776   -0.00000231    0.00004439
     atom   71 type  5   force =    -0.00002453    0.00027201   -0.00004950
     atom   72 type  5   force =    -0.00000879   -0.00003176    0.00000863
     atom   73 type  5   force =     0.00007359   -0.00000695    0.00000019
     atom   74 type  5   force =    -0.00016279    0.00002746   -0.00002362
     atom   75 type  5   force =     0.00008465   -0.00000864    0.00010069
     atom   76 type  5   force =     0.00009170   -0.00000138   -0.00004343
     atom   77 type  5   force =     0.00001868    0.00017929   -0.00000231
     atom   78 type  5   force =     0.00009120   -0.00007941   -0.00006180
     atom   79 type  5   force =    -0.00009042   -0.00001611   -0.00001610
     atom   80 type  5   force =    -0.00007020    0.00004055    0.00004716
     atom   81 type  5   force =     0.00020494   -0.00005616   -0.00001416
     atom   82 type  5   force =     0.00005227    0.00020232    0.00015473
     atom   83 type  5   force =    -0.00006121    0.00001943   -0.00013874
     atom   84 type  5   force =    -0.00005540   -0.00001373    0.00002889
     atom   85 type  5   force =    -0.00017450   -0.00002110    0.00009775
     atom   86 type  5   force =    -0.00002087    0.00000956    0.00001363
     atom   87 type  5   force =     0.00009245   -0.00002544    0.00000981
     atom   88 type  5   force =     0.00010453    0.00008455    0.00007189
     atom   89 type  5   force =    -0.00005012   -0.00009799   -0.00005120
     atom   90 type  5   force =    -0.00005096    0.00001032    0.00002383
     atom   91 type  5   force =     0.00004832   -0.00006514   -0.00013561
     atom   92 type  5   force =    -0.00004555   -0.00010405    0.00003497
     atom   93 type  5   force =     0.00003927    0.00010373   -0.00005481
     atom   94 type  5   force =     0.00001708    0.00000422    0.00003393
     atom   95 type  5   force =     0.00007907    0.00020426    0.00012369
     atom   96 type  5   force =     0.00001137   -0.00008051    0.00010562

     Total force =     0.001573     Total SCF correction =     0.000042


     Computing stress (Cartesian axis) and pressure

          total   stress  (Ry/bohr**3)                   (kbar)     P=   -0.03
  -0.00000008   0.00000606   0.00000169         -0.01      0.89      0.25
   0.00000606  -0.00000080  -0.00000063          0.89     -0.12     -0.09
   0.00000169  -0.00000063   0.00000022          0.25     -0.09      0.03


     number of scf cycles    =  12
     number of bfgs steps    =  11

     enthalpy old            =  -16491.1568515705 Ry
     enthalpy new            =  -16491.1568563632 Ry

     CASE: enthalpy_new < enthalpy_old

     new trust radius        =       0.0019478540 bohr
     new conv_thr            =       0.0000000010 Ry

     new unit-cell volume =  13506.95539 a.u.^3 (  2001.52426 Ang^3 )
     density =      4.11987 g/cm^3

CELL_PARAMETERS (alat= 24.15259000)
   1.001303016   0.000000000   0.000000000
   0.000000000   0.987411788   0.000000000
   0.000000000   0.000000000   0.969622102

ATOMIC_POSITIONS (crystal)
Pb       0.002350586   0.002174111  -0.000665772
Pb       0.000436569   0.003525072   0.500496411
Pb       0.003656186   0.504449218   0.000265901
Pb       0.001394988   0.505301132   0.502439407
Pb       0.502508020   0.002154890   0.001753054
Pb       0.501261102   0.002714632   0.501607546
Pb       0.506230205   0.503458187   0.003468293
Pb       0.505126071   0.503941357   0.502828286
I        0.252613570   0.015648956  -0.034625301
I        0.029172033   0.253128546   0.041866263
I        0.042145419  -0.045873652   0.249599335
I        0.251504069   0.024979148   0.533246228
I        0.021544819   0.255401691   0.457522587
I       -0.042606825   0.051501132   0.749922260
I        0.255040168   0.534342990   0.029085232
I        0.012975878   0.752918928  -0.052116066
I       -0.033750248   0.549084637   0.251030413
I        0.253672379   0.530735529   0.478133547
I        0.018455735   0.755436650   0.544352148
I        0.034716502   0.447274072   0.751162719
I        0.752527626   0.029107604   0.033948364
I        0.514403635   0.252578054  -0.040530146
I        0.460025625   0.051013968   0.251349720
I        0.751357219   0.024271435   0.465656704
I        0.520275482   0.252941346   0.543477582
I        0.535547555  -0.049108040   0.751440493
I        0.755091713   0.516800962  -0.031942054
I        0.531791614   0.752797967   0.045431850
I        0.540852627   0.454079982   0.253049824
I        0.753747740   0.523745303   0.535642970
I        0.524902254   0.753137587   0.457622276
I        0.470690468   0.544769375   0.753259832
C        0.279796330   0.292498098   0.251730128
C        0.284655424   0.289093561   0.749409724
C        0.290572819   0.790929188   0.249809098
C        0.270548725   0.776008558   0.741288209
C        0.788832614   0.290472661   0.248324116
C        0.776272938   0.286810643   0.748708897
C        0.787820495   0.788187750   0.249645281
C        0.783791432   0.795214890   0.745615623
N        0.214328308   0.194694812   0.253084951
N        0.198847735   0.209066725   0.752756100
N        0.200671817   0.715642030   0.254360328
N        0.215364517   0.672171469   0.751181646
N        0.699638387   0.214324423   0.251481184
N        0.707555559   0.191411508   0.753457103
N        0.719337529   0.692555322   0.253733982
N        0.700695303   0.712646456   0.754063717
H        0.165976495   0.191799186   0.185490118
H        0.165464825   0.193743702   0.320310239
H        0.261210225   0.127626289   0.254354628
H        0.329103446   0.291317279   0.179631937
H        0.328610488   0.293617787   0.324168776
H        0.228310653   0.361671823   0.250377185
H        0.201525694   0.159570067   0.685415809
H        0.126456322   0.245851000   0.754687024
H        0.205209873   0.160187803   0.820271380
H        0.275033258   0.337858697   0.677085909
H        0.359667218   0.247720765   0.747007801
H        0.279808045   0.338668068   0.821644765
H        0.200673774   0.665318623   0.187766604
H        0.130501077   0.756918688   0.255516572
H        0.204240021   0.667997399   0.322868902
H        0.283194100   0.839135711   0.176834351
H        0.363462242   0.745755169   0.248088576
H        0.288045332   0.841855714   0.321177384
H        0.217910338   0.629968666   0.679328371
H        0.137706336   0.683138460   0.772086073
H        0.248574994   0.625127065   0.810536258
H        0.233274955   0.821821245   0.676976672
H        0.352559579   0.760902291   0.721868670
H        0.264185753   0.818312029   0.818096491
H        0.700450847   0.164776841   0.184159949
H        0.628974157   0.254514633   0.253307197
H        0.703910049   0.165266710   0.319069652
H        0.781391142   0.339773676   0.176095100
H        0.862049044   0.245873071   0.245989017
H        0.785985690   0.340136071   0.320609457
H        0.658041937   0.188876417   0.686819334
H        0.659893273   0.193305133   0.821558935
H        0.752051993   0.122827830   0.755198150
H        0.824071299   0.282324118   0.675686186
H        0.826460608   0.287725112   0.820107961
H        0.727190846   0.357712237   0.746853996
H        0.669963303   0.690228484   0.186925929
H        0.671400215   0.694005430   0.321650567
H        0.764095277   0.624120670   0.255226750
H        0.835709697   0.784224330   0.176646633
H        0.837944187   0.788811666   0.321127891
H        0.738591373   0.858996950   0.248103909
H        0.702647362   0.661550497   0.688072616
H        0.627388020   0.747348761   0.757293956
H        0.710076501   0.665694861   0.822524435
H        0.770300293   0.841600042   0.672342363
H        0.859928727   0.756199744   0.741798043
H        0.779474407   0.846648323   0.816494477



     Writing output data file MAPbI_vcrelax_PAW10.save/
     NEW-OLD atomic charge density approx. for the potential
     extrapolated charge  399.98366, renormalised to  400.00000

     total cpu time spent up to now is   245383.9 secs

     Self-consistent Calculation

     iteration #  1     ecut=   120.00 Ry     beta= 0.70
     Davidson diagonalization with overlap
