
     Program PWSCF v.6.4 starts on  6Apr2020 at 19:11:39 

     This program is part of the open-source Quantum ESPRESSO suite
     for quantum simulation of materials; please cite
         "P. Giannozzi et al., J. Phys.:Condens. Matter 21 395502 (2009);
         "P. Giannozzi et al., J. Phys.:Condens. Matter 29 465901 (2017);
          URL http://www.quantum-espresso.org", 
     in publications or presentations arising from this work. More details at
     http://www.quantum-espresso.org/quote

     Parallel version (MPI), running on    32 processors

     MPI processes distributed on     1 nodes
     K-points division:     npool     =       4
     R & G space division:  proc/nbgrp/npool/nimage =       8
     Waiting for input...
     Reading input from standard input
     Message from routine read_cards :
     DEPRECATED: no units specified in CELL_PARAMETERS card

     Current dimensions of program PWSCF are:
     Max number of different atomic species (ntypx) = 10
     Max number of k-points (npk) =  40000
     Max angular momentum in pseudopotentials (lmaxx) =  3
               file Pb.pbe-dn-kjpaw_psl.1.0.0.UPF: wavefunction(s)  6S 6P 5D renormalized
               file I.pbe-n-kjpaw_psl.1.0.0.UPF: wavefunction(s)  5S renormalized
               file C.pbe-n-kjpaw_psl.1.0.0.UPF: wavefunction(s)  2S 2P renormalized
               file N.pbe-n-kjpaw_psl.1.0.0.UPF: wavefunction(s)  2S renormalized
               file H.pbe-kjpaw_psl.1.0.0.UPF: wavefunction(s)  1S renormalized

     --------------------------------------------
     Parameters for DFT-D3 Dispersion Correction:
     --------------------------------------------
       Reference C6 values for interpolation: 

         atom   Coordination number   C6
         H          0.912             6.05
         H          0.000            15.18
         C          0.000            98.23
         C          0.987            86.49
         C          1.998            58.72
         C          2.999            51.56
         C          3.984            36.41
         N          0.000            50.54
         N          0.994            44.25
         N          2.014            39.35
         N          2.990            31.16
         I          0.000           703.93
         I          0.997           717.00
         Pb         0.000          1477.63
         Pb         0.938          1266.00
         Pb         1.936          1088.91
         Pb         2.908          1048.37
         Pb         3.910           910.57

       Values used:

         atom   Coordination number  R0_AB[au]  C6      C8
         Pb         4.797            4.041    910.57 144158.42
         Pb         4.809            4.041    910.57 144158.39
         Pb         4.825            4.041    910.57 144158.36
         Pb         4.840            4.041    910.57 144158.33
         Pb         4.822            4.041    910.57 144158.37
         Pb         4.824            4.041    910.57 144158.36
         Pb         4.854            4.041    910.57 144158.31
         Pb         4.858            4.041    910.57 144158.30
         I          1.933            3.532    717.00  65855.99
         I          1.954            3.532    717.00  65856.00
         I          1.952            3.532    717.00  65856.00
         I          1.930            3.532    717.00  65855.99
         I          1.962            3.532    717.00  65856.00
         I          1.979            3.532    717.00  65856.00
         I          1.884            3.532    717.00  65855.99
         I          1.937            3.532    717.00  65855.99
         I          1.974            3.532    717.00  65856.00
         I          1.910            3.532    717.00  65855.99
         I          1.955            3.532    717.00  65856.00
         I          1.995            3.532    717.00  65856.00
         I          1.918            3.532    717.00  65855.99
         I          1.981            3.532    717.00  65856.00
         I          1.979            3.532    717.00  65856.00
         I          1.934            3.532    717.00  65855.99
         I          1.985            3.532    717.00  65856.00
         I          1.964            3.532    717.00  65856.00
         I          1.967            3.532    717.00  65856.00
         I          1.988            3.532    717.00  65856.00
         I          1.982            3.532    717.00  65856.00
         I          1.977            3.532    717.00  65856.00
         I          1.991            3.532    717.00  65856.00
         I          2.012            3.532    717.00  65856.00
         C          4.038            2.750     36.59   1058.25
         C          4.041            2.750     36.59   1058.14
         C          4.041            2.750     36.59   1058.15
         C          4.036            2.750     36.59   1058.34
         C          4.040            2.750     36.59   1058.17
         C          4.045            2.750     36.58   1057.99
         C          4.043            2.750     36.58   1058.08
         C          4.046            2.750     36.58   1057.94
         N          4.065            2.478     31.16    687.49
         N          4.061            2.478     31.16    687.49
         N          4.059            2.478     31.16    687.49
         N          4.068            2.478     31.16    687.49
         N          4.062            2.478     31.16    687.49
         N          4.064            2.478     31.16    687.49
         N          4.064            2.478     31.16    687.49
         N          4.061            2.478     31.16    687.49
         H          1.077            2.062      6.13     74.06
         H          1.074            2.062      6.13     74.08
         H          1.050            2.062      6.14     74.25
         H          1.007            2.062      6.17     74.64
         H          1.007            2.062      6.17     74.64
         H          1.007            2.062      6.18     74.65
         H          1.075            2.062      6.13     74.07
         H          1.041            2.062      6.15     74.32
         H          1.070            2.062      6.13     74.10
         H          1.008            2.062      6.17     74.63
         H          1.011            2.062      6.17     74.60
         H          1.008            2.062      6.17     74.64
         H          1.063            2.062      6.13     74.15
         H          1.049            2.062      6.14     74.26
         H          1.062            2.062      6.14     74.16
         H          1.008            2.062      6.17     74.63
         H          1.010            2.062      6.17     74.61
         H          1.008            2.062      6.17     74.63
         H          1.039            2.062      6.15     74.34
         H          1.039            2.062      6.15     74.34
         H          1.032            2.062      6.15     74.40
         H          1.013            2.062      6.17     74.58
         H          1.013            2.062      6.17     74.59
         H          1.012            2.062      6.17     74.59
         H          1.076            2.062      6.13     74.07
         H          1.045            2.062      6.15     74.29
         H          1.076            2.062      6.13     74.07
         H          1.008            2.062      6.17     74.63
         H          1.010            2.062      6.17     74.61
         H          1.008            2.062      6.17     74.63
         H          1.073            2.062      6.13     74.09
         H          1.071            2.062      6.13     74.10
         H          1.042            2.062      6.15     74.32
         H          1.008            2.062      6.17     74.63
         H          1.009            2.062      6.17     74.63
         H          1.009            2.062      6.17     74.62
         H          1.078            2.062      6.13     74.06
         H          1.073            2.062      6.13     74.09
         H          1.045            2.062      6.15     74.29
         H          1.008            2.062      6.17     74.63
         H          1.008            2.062      6.17     74.63
         H          1.008            2.062      6.17     74.63
         H          1.067            2.062      6.13     74.13
         H          1.038            2.062      6.15     74.35
         H          1.061            2.062      6.14     74.17
         H          1.009            2.062      6.17     74.63
         H          1.014            2.062      6.17     74.57
         H          1.009            2.062      6.17     74.62

         Molecular C6 ( Ry / a.u.^6 ) =   1196389.84


     Subspace diagonalization in iterative solution of the eigenvalue problem:
     a serial algorithm will be used


     Parallelization info
     --------------------
     sticks:   dense  smooth     PW     G-vecs:    dense   smooth      PW
     Min        2756    2756    710               299860   299860   39252
     Max        2758    2758    711               299861   299861   39255
     Sum       22055   22055   5685              2398881  2398881  314027



     bravais-lattice index     =            0
     lattice parameter (alat)  =      24.1526  a.u.
     unit-cell volume          =   13506.9554 (a.u.)^3
     number of atoms/cell      =           96
     number of atomic types    =            5
     number of electrons       =       400.00
     number of Kohn-Sham states=          200
     kinetic-energy cutoff     =     120.0000  Ry
     charge density cutoff     =     480.0000  Ry
     convergence threshold     =      1.0E-07
     mixing beta               =       0.7000
     number of iterations used =            8  plain     mixing
     Exchange-correlation      = SLA PW PBX PBC ( 1  4  3  4 0 0)
     nstep                     =          150


     celldm(1)=  24.152590  celldm(2)=   0.000000  celldm(3)=   0.000000
     celldm(4)=   0.000000  celldm(5)=   0.000000  celldm(6)=   0.000000

     crystal axes: (cart. coord. in units of alat)
               a(1) = (   1.001303   0.000000   0.000000 )  
               a(2) = (   0.000000   0.987412   0.000000 )  
               a(3) = (   0.000000   0.000000   0.969622 )  

     reciprocal axes: (cart. coord. in units 2 pi/alat)
               b(1) = (  0.998699  0.000000  0.000000 )  
               b(2) = (  0.000000  1.012749  0.000000 )  
               b(3) = (  0.000000  0.000000  1.031330 )  


     PseudoPot. # 1 for Pb read from file:
     ../Pseudopotential/Pb.pbe-dn-kjpaw_psl.1.0.0.UPF
     MD5 check sum: 684fc8fbce61a260853528575e4d9ab7
     Pseudo is Projector augmented-wave + core cor, Zval = 14.0
     Generated using "atomic" code by A. Dal Corso v.6.3
     Shape of augmentation charge: PSQ
     Using radial grid of 1281 points,  6 beta functions with: 
                l(1) =   0
                l(2) =   0
                l(3) =   1
                l(4) =   1
                l(5) =   2
                l(6) =   2
     Q(r) pseudized with 0 coefficients 


     PseudoPot. # 2 for I  read from file:
     ../Pseudopotential/I.pbe-n-kjpaw_psl.1.0.0.UPF
     MD5 check sum: cd3d296c3308a581e1559a0c8a554cb5
     Pseudo is Projector augmented-wave + core cor, Zval =  7.0
     Generated using "atomic" code by A. Dal Corso v.6.3
     Shape of augmentation charge: PSQ
     Using radial grid of 1247 points,  6 beta functions with: 
                l(1) =   0
                l(2) =   0
                l(3) =   1
                l(4) =   1
                l(5) =   2
                l(6) =   2
     Q(r) pseudized with 0 coefficients 


     PseudoPot. # 3 for C  read from file:
     ../Pseudopotential/C.pbe-n-kjpaw_psl.1.0.0.UPF
     MD5 check sum: 5f16ad9a65e90284d1d834d4ab3b0f7d
     Pseudo is Projector augmented-wave + core cor, Zval =  4.0
     Generated using "atomic" code by A. Dal Corso v.6.3
     Shape of augmentation charge: PSQ
     Using radial grid of 1073 points,  4 beta functions with: 
                l(1) =   0
                l(2) =   0
                l(3) =   1
                l(4) =   1
     Q(r) pseudized with 0 coefficients 


     PseudoPot. # 4 for N  read from file:
     ../Pseudopotential/N.pbe-n-kjpaw_psl.1.0.0.UPF
     MD5 check sum: 14c48229446f9f2d411169a3abcbc3fa
     Pseudo is Projector augmented-wave + core cor, Zval =  5.0
     Generated using "atomic" code by A. Dal Corso v.6.3
     Shape of augmentation charge: PSQ
     Using radial grid of 1085 points,  4 beta functions with: 
                l(1) =   0
                l(2) =   0
                l(3) =   1
                l(4) =   1
     Q(r) pseudized with 0 coefficients 


     PseudoPot. # 5 for H  read from file:
     ../Pseudopotential/H.pbe-kjpaw_psl.1.0.0.UPF
     MD5 check sum: d81a744832360e4a8af0b0b5b123bc2a
     Pseudo is Projector augmented-wave, Zval =  1.0
     Generated using "atomic" code by A. Dal Corso v.6.3MaX
     Shape of augmentation charge: PSQ
     Using radial grid of  929 points,  2 beta functions with: 
                l(1) =   0
                l(2) =   0
     Q(r) pseudized with 0 coefficients 


     atomic species   valence    mass     pseudopotential
        Pb            14.00   207.97600     Pb( 1.00)
        I              7.00   126.90400     I ( 1.00)
        C              4.00    12.00000     C ( 1.00)
        N              5.00    14.00300     N ( 1.00)
        H              1.00     1.00700     H ( 1.00)

     No symmetry found



   Cartesian axes

     site n.     atom                  positions (alat units)
         1           Pb  tau(   1) = (   0.0023536   0.0021467  -0.0006455  )
         2           Pb  tau(   2) = (   0.0004371   0.0034807   0.4852924  )
         3           Pb  tau(   3) = (   0.0036610   0.4980991   0.0002578  )
         4           Pb  tau(   4) = (   0.0013968   0.4989403   0.4871764  )
         5           Pb  tau(   5) = (   0.5031628   0.0021278   0.0016998  )
         6           Pb  tau(   6) = (   0.5019143   0.0026805   0.4863698  )
         7           Pb  tau(   7) = (   0.5068898   0.4971205   0.0033629  )
         8           Pb  tau(   8) = (   0.5057843   0.4975976   0.4875534  )
         9           I   tau(   9) = (   0.2529427   0.0154520  -0.0335735  )
        10           I   tau(  10) = (   0.0292100   0.2499421   0.0405945  )
        11           I   tau(  11) = (   0.0422003  -0.0452962   0.2420170  )
        12           I   tau(  12) = (   0.2518318   0.0246647   0.5170473  )
        13           I   tau(  13) = (   0.0215729   0.2521866   0.4436240  )
        14           I   tau(  14) = (  -0.0426623   0.0508528   0.7271412  )
        15           I   tau(  15) = (   0.2553725   0.5276166   0.0282017  )
        16           I   tau(  16) = (   0.0129928   0.7434410  -0.0505329  )
        17           I   tau(  17) = (  -0.0337942   0.5421726   0.2434046  )
        18           I   tau(  18) = (   0.2540029   0.5240545   0.4636089  )
        19           I   tau(  19) = (   0.0184798   0.7459271   0.5278159  )
        20           I   tau(  20) = (   0.0347617   0.4416437   0.7283440  )
        21           I   tau(  21) = (   0.7535082   0.0287412   0.0329171  )
        22           I   tau(  22) = (   0.5150739   0.2493985  -0.0392989  )
        23           I   tau(  23) = (   0.4606250   0.0503718   0.2437142  )
        24           I   tau(  24) = (   0.7523362   0.0239659   0.4515110  )
        25           I   tau(  25) = (   0.5209534   0.2497573   0.5269679  )
        26           I   tau(  26) = (   0.5362454  -0.0484899   0.7286133  )
        27           I   tau(  27) = (   0.7560756   0.5102954  -0.0309717  )
        28           I   tau(  28) = (   0.5324845   0.7433216   0.0440517  )
        29           I   tau(  29) = (   0.5415574   0.4483639   0.2453627  )
        30           I   tau(  30) = (   0.7547299   0.5171523   0.5193713  )
        31           I   tau(  31) = (   0.5255862   0.7436569   0.4437207  )
        32           I   tau(  32) = (   0.4713038   0.5379117   0.7303774  )
        33           C   tau(  33) = (   0.2801609   0.2888161   0.2440831  )
        34           C   tau(  34) = (   0.2850263   0.2854544   0.7266442  )
        35           C   tau(  35) = (   0.2909514   0.7809728   0.2422204  )
        36           C   tau(  36) = (   0.2709013   0.7662400   0.7187694  )
        37           C   tau(  37) = (   0.7898605   0.2868161   0.2407806  )
        38           C   tau(  38) = (   0.7772844   0.2832002   0.7259647  )
        39           C   tau(  39) = (   0.7888470   0.7782659   0.2420616  )
        40           C   tau(  40) = (   0.7848127   0.7852046   0.7229654  )
        41           N   tau(  41) = (   0.2146076   0.1922440   0.2453968  )
        42           N   tau(  42) = (   0.1991068   0.2064349   0.7298890  )
        43           N   tau(  43) = (   0.2009333   0.7066334   0.2466334  )
        44           N   tau(  44) = (   0.2156451   0.6637100   0.7283623  )
        45           N   tau(  45) = (   0.7005500   0.2116265   0.2438417  )
        46           N   tau(  46) = (   0.7084775   0.1890020   0.7305687  )
        47           N   tau(  47) = (   0.7202748   0.6838373   0.2460261  )
        48           N   tau(  48) = (   0.7016083   0.7036755   0.7311568  )
        49           H   tau(  49) = (   0.1661928   0.1893848   0.1798553  )
        50           H   tau(  50) = (   0.1656804   0.1913048   0.3105799  )
        51           H   tau(  51) = (   0.2615506   0.1260197   0.2466279  )
        52           H   tau(  52) = (   0.3295323   0.2876501   0.1741751  )
        53           H   tau(  53) = (   0.3290387   0.2899217   0.3143212  )
        54           H   tau(  54) = (   0.2286081   0.3571190   0.2427713  )
        55           H   tau(  55) = (   0.2017883   0.1575614   0.6645943  )
        56           H   tau(  56) = (   0.1266211   0.2427562   0.7317612  )
        57           H   tau(  57) = (   0.2054773   0.1581713   0.7953533  )
        58           H   tau(  58) = (   0.2753916   0.3336057   0.6565175  )
        59           H   tau(  59) = (   0.3601359   0.2446024   0.7243153  )
        60           H   tau(  60) = (   0.2801726   0.3344048   0.7966849  )
        61           H   tau(  61) = (   0.2009353   0.6569435   0.1820626  )
        62           H   tau(  62) = (   0.1306711   0.7473904   0.2477545  )
        63           H   tau(  63) = (   0.2045061   0.6595885   0.3130608  )
        64           H   tau(  64) = (   0.2835631   0.8285725   0.1714625  )
        65           H   tau(  65) = (   0.3639358   0.7363674   0.2405522  )
        66           H   tau(  66) = (   0.2884207   0.8312583   0.3114207  )
        67           H   tau(  67) = (   0.2181943   0.6220385   0.6586918  )
        68           H   tau(  68) = (   0.1378858   0.6745390   0.7486317  )
        69           H   tau(  69) = (   0.2488989   0.6172578   0.7859139  )
        70           H   tau(  70) = (   0.2335789   0.8114760   0.6564115  )
        71           H   tau(  71) = (   0.3530190   0.7513239   0.6999398  )
        72           H   tau(  72) = (   0.2645300   0.8080109   0.7932444  )
        73           H   tau(  73) = (   0.7013635   0.1627026   0.1785656  )
        74           H   tau(  74) = (   0.6297937   0.2513107   0.2456123  )
        75           H   tau(  75) = (   0.7048273   0.1631863   0.3093770  )
        76           H   tau(  76) = (   0.7824093   0.3354965   0.1707457  )
        77           H   tau(  77) = (   0.8631723   0.2427780   0.2385164  )
        78           H   tau(  78) = (   0.7870098   0.3358544   0.3108700  )
        79           H   tau(  79) = (   0.6588994   0.1864988   0.6659552  )
        80           H   tau(  80) = (   0.6607531   0.1908718   0.7966017  )
        81           H   tau(  81) = (   0.7530319   0.1212816   0.7322568  )
        82           H   tau(  82) = (   0.8251451   0.2787702   0.6551603  )
        83           H   tau(  83) = (   0.8275375   0.2841032   0.7951948  )
        84           H   tau(  84) = (   0.7281384   0.3532093   0.7241661  )
        85           H   tau(  85) = (   0.6708363   0.6815397   0.1812475  )
        86           H   tau(  86) = (   0.6722751   0.6852691   0.3118795  )
        87           H   tau(  87) = (   0.7650909   0.6162641   0.2474735  )
        88           H   tau(  88) = (   0.8367986   0.7743523   0.1712805  )
        89           H   tau(  89) = (   0.8390360   0.7788819   0.3113727  )
        90           H   tau(  90) = (   0.7395538   0.8481837   0.2405670  )
        91           H   tau(  91) = (   0.7035629   0.6532228   0.6671704  )
        92           H   tau(  92) = (   0.6282055   0.7379410   0.7342890  )
        93           H   tau(  93) = (   0.7110017   0.6573150   0.7975379  )
        94           H   tau(  94) = (   0.7713040   0.8310058   0.6519180  )
        95           H   tau(  95) = (   0.8610492   0.7466805   0.7192638  )
        96           H   tau(  96) = (   0.7804901   0.8359905   0.7916911  )

     number of k points=    32
                       cart. coord. in units 2pi/alat
        k(    1) = (   0.1248373   0.1265936   0.1289162), wk =   0.0625000
        k(    2) = (   0.1248373   0.1265936   0.3867486), wk =   0.0625000
        k(    3) = (   0.1248373   0.3797808   0.1289162), wk =   0.0625000
        k(    4) = (   0.1248373   0.3797808   0.3867486), wk =   0.0625000
        k(    5) = (   0.3745120   0.1265936   0.1289162), wk =   0.0625000
        k(    6) = (   0.3745120   0.1265936   0.3867486), wk =   0.0625000
        k(    7) = (   0.3745120   0.3797808   0.1289162), wk =   0.0625000
        k(    8) = (   0.3745120   0.3797808   0.3867486), wk =   0.0625000
        k(    9) = (  -0.1248373  -0.1265936   0.1289162), wk =   0.0625000
        k(   10) = (  -0.1248373   0.1265936  -0.1289162), wk =   0.0625000
        k(   11) = (   0.1248373  -0.1265936  -0.1289162), wk =   0.0625000
        k(   12) = (  -0.1248373  -0.1265936   0.3867486), wk =   0.0625000
        k(   13) = (  -0.1248373   0.1265936  -0.3867486), wk =   0.0625000
        k(   14) = (   0.1248373  -0.1265936  -0.3867486), wk =   0.0625000
        k(   15) = (  -0.1248373  -0.3797808   0.1289162), wk =   0.0625000
        k(   16) = (  -0.1248373   0.3797808  -0.1289162), wk =   0.0625000
        k(   17) = (   0.1248373  -0.3797808  -0.1289162), wk =   0.0625000
        k(   18) = (  -0.1248373  -0.3797808   0.3867486), wk =   0.0625000
        k(   19) = (  -0.1248373   0.3797808  -0.3867486), wk =   0.0625000
        k(   20) = (   0.1248373  -0.3797808  -0.3867486), wk =   0.0625000
        k(   21) = (  -0.3745120  -0.1265936   0.1289162), wk =   0.0625000
        k(   22) = (  -0.3745120   0.1265936  -0.1289162), wk =   0.0625000
        k(   23) = (   0.3745120  -0.1265936  -0.1289162), wk =   0.0625000
        k(   24) = (  -0.3745120  -0.1265936   0.3867486), wk =   0.0625000
        k(   25) = (  -0.3745120   0.1265936  -0.3867486), wk =   0.0625000
        k(   26) = (   0.3745120  -0.1265936  -0.3867486), wk =   0.0625000
        k(   27) = (  -0.3745120  -0.3797808   0.1289162), wk =   0.0625000
        k(   28) = (  -0.3745120   0.3797808  -0.1289162), wk =   0.0625000
        k(   29) = (   0.3745120  -0.3797808  -0.1289162), wk =   0.0625000
        k(   30) = (  -0.3745120  -0.3797808   0.3867486), wk =   0.0625000
        k(   31) = (  -0.3745120   0.3797808  -0.3867486), wk =   0.0625000
        k(   32) = (   0.3745120  -0.3797808  -0.3867486), wk =   0.0625000

     Dense  grid:  2398881 G-vectors     FFT dimensions: ( 180, 180, 180)

     Estimated max dynamical RAM per process >       3.10 GB

     Estimated total dynamical RAM >      99.10 GB

     Initial potential from superposition of free atoms

     starting charge  399.97850, renormalised to  400.00000
     Starting wfcs are  280 randomized atomic wfcs
     Checking if some PAW data can be deallocated... 

     total cpu time spent up to now is     1242.3 secs

     Self-consistent Calculation

     iteration #  1     ecut=   120.00 Ry     beta= 0.70
     Davidson diagonalization with overlap
     ethr =  1.00E-02,  avg # of iterations =  2.0

     total cpu time spent up to now is     3294.9 secs

     total energy              =  -16489.36560997 Ry
     Harris-Foulkes estimate   =  -16492.77150656 Ry
     estimated scf accuracy    <       5.71276334 Ry

     iteration #  2     ecut=   120.00 Ry     beta= 0.70
     Davidson diagonalization with overlap
     ethr =  1.43E-03,  avg # of iterations =  3.0

     total cpu time spent up to now is     6261.8 secs

     total energy              =  -16490.60785538 Ry
     Harris-Foulkes estimate   =  -16491.84571722 Ry
     estimated scf accuracy    <       2.20076604 Ry

     iteration #  3     ecut=   120.00 Ry     beta= 0.70
     Davidson diagonalization with overlap
     ethr =  5.50E-04,  avg # of iterations =  3.0

     total cpu time spent up to now is     8713.7 secs

     total energy              =  -16491.12777031 Ry
     Harris-Foulkes estimate   =  -16491.17125176 Ry
     estimated scf accuracy    <       0.10067332 Ry

     iteration #  4     ecut=   120.00 Ry     beta= 0.70
     Davidson diagonalization with overlap
     ethr =  2.52E-05,  avg # of iterations =  3.0

     total cpu time spent up to now is    11560.8 secs

     total energy              =  -16491.15236214 Ry
     Harris-Foulkes estimate   =  -16491.16260298 Ry
     estimated scf accuracy    <       0.01876818 Ry

     iteration #  5     ecut=   120.00 Ry     beta= 0.70
     Davidson diagonalization with overlap
     ethr =  4.69E-06,  avg # of iterations =  2.3

     total cpu time spent up to now is    14233.7 secs

     total energy              =  -16491.15622978 Ry
     Harris-Foulkes estimate   =  -16491.15704050 Ry
     estimated scf accuracy    <       0.00144960 Ry

     iteration #  6     ecut=   120.00 Ry     beta= 0.70
     Davidson diagonalization with overlap
     ethr =  3.62E-07,  avg # of iterations =  3.0

     total cpu time spent up to now is    17331.0 secs

     total energy              =  -16491.15662701 Ry
     Harris-Foulkes estimate   =  -16491.15708017 Ry
     estimated scf accuracy    <       0.00106498 Ry

     iteration #  7     ecut=   120.00 Ry     beta= 0.70
     Davidson diagonalization with overlap
     ethr =  2.66E-07,  avg # of iterations =  2.3

     total cpu time spent up to now is    19654.3 secs

     total energy              =  -16491.15684642 Ry
     Harris-Foulkes estimate   =  -16491.15686196 Ry
     estimated scf accuracy    <       0.00004200 Ry

     iteration #  8     ecut=   120.00 Ry     beta= 0.70
     Davidson diagonalization with overlap
     ethr =  1.05E-08,  avg # of iterations =  3.0

     total cpu time spent up to now is    22722.7 secs

     total energy              =  -16491.15686047 Ry
     Harris-Foulkes estimate   =  -16491.15686409 Ry
     estimated scf accuracy    <       0.00000839 Ry

     iteration #  9     ecut=   120.00 Ry     beta= 0.70
     Davidson diagonalization with overlap
     ethr =  2.10E-09,  avg # of iterations =  3.0

     total cpu time spent up to now is    25262.9 secs

     total energy              =  -16491.15686232 Ry
     Harris-Foulkes estimate   =  -16491.15686286 Ry
     estimated scf accuracy    <       0.00000112 Ry

     iteration # 10     ecut=   120.00 Ry     beta= 0.70
     Davidson diagonalization with overlap
     ethr =  2.79E-10,  avg # of iterations =  3.7

     total cpu time spent up to now is    28153.9 secs

     total energy              =  -16491.15686262 Ry
     Harris-Foulkes estimate   =  -16491.15686274 Ry
     estimated scf accuracy    <       0.00000026 Ry

     iteration # 11     ecut=   120.00 Ry     beta= 0.70
     Davidson diagonalization with overlap
     ethr =  6.43E-11,  avg # of iterations =  3.2

     total cpu time spent up to now is    30718.2 secs

     End of self-consistent calculation

          k = 0.1248 0.1266 0.1289 (299827 PWs)   bands (ev):

   -17.5202 -17.4917 -17.4551 -17.4309 -17.4301 -17.4290 -17.4242 -17.4187
   -14.2980 -14.2925 -14.2895 -14.2862 -14.2814 -14.2803 -14.2780 -14.2760
   -14.2748 -14.2720 -14.2711 -14.2653 -14.2642 -14.2605 -14.2583 -14.2572
   -14.2529 -14.2519 -14.2485 -14.2483 -14.2482 -14.2480 -14.2474 -14.2470
   -14.2449 -14.2399 -14.2393 -14.2390 -14.2387 -14.2382 -14.2370 -14.2352
   -14.2315 -14.2305 -14.2297 -14.2292 -14.2226 -14.2208 -14.2187 -14.2113
   -10.4890 -10.4670 -10.4578 -10.4560 -10.4471 -10.4433 -10.4264 -10.4233
    -9.6916  -9.5246  -9.5212  -9.5083  -9.3607  -9.3491  -9.3389  -9.3038
    -9.2886  -9.2724  -9.2491  -9.2425  -9.2294  -9.2008  -9.1899  -9.1764
    -9.1646  -9.1516  -9.1225  -9.0866  -9.0336  -9.0131  -8.9961  -8.9802
    -6.9756  -6.9594  -6.9518  -6.9448  -6.9414  -6.9342  -6.9237  -6.9175
    -6.9121  -6.8767  -6.8238  -6.8071  -6.8039  -6.7921  -6.7798  -6.7752
    -5.8990  -5.4816  -5.4519  -5.4459  -5.0597  -5.0415  -5.0086  -4.8453
    -4.8269  -4.8199  -4.8093  -4.8032  -4.8000  -4.7807  -4.7769  -4.5785
    -2.8032  -2.7779  -2.7728  -2.7676  -2.7586  -2.7551  -2.7442  -2.7405
    -2.7327  -2.7270  -2.7201  -2.7093  -2.7045  -2.7012  -2.6985  -2.6932
    -0.8855  -0.8389  -0.8217  -0.8016  -0.7715  -0.7509  -0.7415  -0.7217
    -0.6602  -0.6082  -0.5956  -0.5564   0.2190   0.2902   0.2950   0.3048
     0.3992   0.4222   0.4294   0.4650   0.4849   0.5433   0.5686   0.5792
     0.5980   0.7252   0.7452   0.7713   0.7960   0.8158   0.8777   0.9098
     0.9193   0.9421   0.9473   0.9605   0.9745   0.9974   1.0066   1.0242
     1.0356   1.0699   1.0970   1.1140   1.1308   1.1459   1.1706   1.1780
     1.2088   1.2139   1.2270   1.2371   1.2402   1.2627   1.2786   1.3061
     1.3169   1.3471   1.3632   1.4181   1.4623   1.4673   1.4883   1.5604
     1.5944   1.6147   1.6693   1.6790   1.7108   1.7825   1.8511   2.0424

          k = 0.1248 0.1266 0.3867 (299842 PWs)   bands (ev):

   -17.5202 -17.4917 -17.4551 -17.4309 -17.4301 -17.4290 -17.4242 -17.4188
   -14.2971 -14.2911 -14.2883 -14.2864 -14.2821 -14.2809 -14.2781 -14.2765
   -14.2736 -14.2721 -14.2709 -14.2677 -14.2631 -14.2601 -14.2583 -14.2572
   -14.2539 -14.2519 -14.2490 -14.2485 -14.2482 -14.2480 -14.2474 -14.2470
   -14.2449 -14.2399 -14.2393 -14.2390 -14.2387 -14.2383 -14.2370 -14.2352
   -14.2315 -14.2305 -14.2297 -14.2292 -14.2226 -14.2208 -14.2187 -14.2113
   -10.4882 -10.4657 -10.4589 -10.4549 -10.4467 -10.4449 -10.4265 -10.4238
    -9.6562  -9.5889  -9.4901  -9.4779  -9.4293  -9.4169  -9.3320  -9.3070
    -9.2847  -9.2556  -9.2247  -9.2150  -9.2036  -9.1966  -9.1797  -9.1685
    -9.1522  -9.1247  -9.1147  -9.0931  -9.0625  -9.0414  -8.9971  -8.9842
    -6.9810  -6.9538  -6.9503  -6.9448  -6.9401  -6.9361  -6.9225  -6.9193
    -6.9096  -6.8828  -6.8186  -6.8008  -6.7962  -6.7933  -6.7863  -6.7814
    -5.7779  -5.5919  -5.3656  -5.3339  -5.1846  -5.1530  -4.9667  -4.8645
    -4.8344  -4.8215  -4.8098  -4.8041  -4.7916  -4.7835  -4.7675  -4.6966
    -2.8019  -2.7739  -2.7704  -2.7661  -2.7552  -2.7510  -2.7462  -2.7401
    -2.7340  -2.7257  -2.7214  -2.7109  -2.7081  -2.7027  -2.7005  -2.6937
    -0.8075  -0.7899  -0.7579  -0.7188  -0.7156  -0.7031  -0.6499  -0.6420
    -0.4859  -0.4073  -0.3778  -0.2743   0.0466   0.1198   0.1387   0.2239
     0.3352   0.3504   0.3828   0.4023   0.4329   0.4520   0.4610   0.4873
     0.5027   0.5378   0.7448   0.7625   0.7838   0.8104   0.8698   0.8970
     0.9071   0.9222   0.9440   0.9658   0.9876   1.0112   1.0276   1.0438
     1.0523   1.0663   1.0709   1.0956   1.1064   1.1290   1.1350   1.1689
     1.1967   1.2077   1.2249   1.2345   1.2505   1.2621   1.2772   1.3038
     1.3485   1.3599   1.3794   1.4118   1.4314   1.4577   1.4636   1.5419
     1.5884   1.6100   1.6360   1.6626   1.6743   1.6832   1.7476   1.8450

          k = 0.1248 0.3798 0.1289 (299811 PWs)   bands (ev):

   -17.5202 -17.4917 -17.4551 -17.4309 -17.4301 -17.4290 -17.4242 -17.4188
   -14.2980 -14.2918 -14.2894 -14.2858 -14.2806 -14.2795 -14.2773 -14.2762
   -14.2740 -14.2727 -14.2721 -14.2658 -14.2643 -14.2614 -14.2583 -14.2572
   -14.2530 -14.2519 -14.2488 -14.2485 -14.2483 -14.2480 -14.2474 -14.2469
   -14.2449 -14.2399 -14.2393 -14.2390 -14.2387 -14.2382 -14.2370 -14.2352
   -14.2315 -14.2305 -14.2297 -14.2292 -14.2226 -14.2208 -14.2187 -14.2113
   -10.4879 -10.4656 -10.4566 -10.4543 -10.4474 -10.4448 -10.4282 -10.4254
    -9.6520  -9.5766  -9.4985  -9.4878  -9.4132  -9.4050  -9.3369  -9.3001
    -9.2887  -9.2838  -9.2522  -9.2417  -9.2318  -9.1809  -9.1798  -9.1588
    -9.1382  -9.1012  -9.0908  -9.0778  -9.0503  -9.0277  -9.0159  -9.0056
    -6.9753  -6.9591  -6.9514  -6.9448  -6.9408  -6.9348  -6.9243  -6.9181
    -6.9116  -6.8763  -6.8233  -6.8070  -6.8042  -6.7909  -6.7815  -6.7759
    -5.7796  -5.5910  -5.3705  -5.3368  -5.1947  -5.1499  -4.9485  -4.8689
    -4.8345  -4.8159  -4.8084  -4.8009  -4.7963  -4.7851  -4.7684  -4.6879
    -2.7953  -2.7809  -2.7691  -2.7610  -2.7569  -2.7526  -2.7457  -2.7415
    -2.7351  -2.7284  -2.7221  -2.7139  -2.7089  -2.7016  -2.6982  -2.6930
    -0.8633  -0.8255  -0.7902  -0.7818  -0.7545  -0.7326  -0.6513  -0.5844
    -0.4360  -0.3896  -0.2796  -0.2292   0.0897   0.1452   0.2618   0.2881
     0.3188   0.3389   0.3456   0.3683   0.4453   0.4530   0.4673   0.5448
     0.5507   0.6214   0.6248   0.6440   0.7193   0.8055   0.8162   0.8268
     0.8885   0.9127   0.9239   0.9508   0.9774   0.9829   0.9986   1.0180
     1.0261   1.0434   1.0910   1.1132   1.1370   1.1522   1.1901   1.2034
     1.2154   1.2227   1.2381   1.2538   1.2601   1.2783   1.3056   1.3195
     1.3416   1.3510   1.4018   1.4122   1.4634   1.4755   1.4940   1.5203
     1.5554   1.5725   1.5764   1.5933   1.6191   1.6523   1.8112   1.8583

          k = 0.1248 0.3798 0.3867 (299797 PWs)   bands (ev):

   -17.5202 -17.4917 -17.4551 -17.4309 -17.4301 -17.4290 -17.4242 -17.4188
   -14.2971 -14.2904 -14.2882 -14.2862 -14.2814 -14.2803 -14.2775 -14.2755
   -14.2737 -14.2727 -14.2719 -14.2684 -14.2631 -14.2611 -14.2583 -14.2572
   -14.2540 -14.2519 -14.2496 -14.2485 -14.2483 -14.2480 -14.2474 -14.2470
   -14.2449 -14.2399 -14.2393 -14.2390 -14.2387 -14.2383 -14.2370 -14.2352
   -14.2315 -14.2305 -14.2297 -14.2292 -14.2226 -14.2208 -14.2187 -14.2113
   -10.4874 -10.4635 -10.4588 -10.4536 -10.4475 -10.4444 -10.4287 -10.4262
    -9.6193  -9.5556  -9.5413  -9.4858  -9.4618  -9.4046  -9.3801  -9.3402
    -9.2883  -9.2560  -9.2104  -9.2057  -9.2001  -9.1720  -9.1545  -9.1493
    -9.1233  -9.1196  -9.1113  -9.0733  -9.0683  -9.0432  -9.0244  -9.0078
    -6.9808  -6.9530  -6.9504  -6.9447  -6.9403  -6.9365  -6.9232  -6.9193
    -6.9090  -6.8827  -6.8185  -6.8007  -6.7963  -6.7930  -6.7867  -6.7818
    -5.6616  -5.4801  -5.4725  -5.2938  -5.2574  -5.0944  -5.0816  -4.9448
    -4.8347  -4.8162  -4.8082  -4.8018  -4.7955  -4.7861  -4.7727  -4.7527
    -2.7951  -2.7819  -2.7726  -2.7611  -2.7539  -2.7491  -2.7463  -2.7409
    -2.7344  -2.7291  -2.7214  -2.7114  -2.7079  -2.7021  -2.6990  -2.6923
    -0.7996  -0.7384  -0.7314  -0.6767  -0.5367  -0.4573  -0.4385  -0.3914
    -0.3209  -0.3035  -0.2943  -0.2833   0.0605   0.1032   0.1303   0.1422
     0.2083   0.2520   0.2665   0.3269   0.3736   0.4077   0.4234   0.4320
     0.5125   0.5434   0.6124   0.6319   0.7053   0.7256   0.7919   0.8244
     0.8615   0.8849   0.8997   0.9366   0.9558   0.9669   0.9923   1.0091
     1.0193   1.0334   1.0480   1.0589   1.1013   1.1130   1.1335   1.1530
     1.2052   1.2291   1.2476   1.2530   1.2606   1.2873   1.3070   1.3215
     1.3737   1.3857   1.4009   1.4294   1.4474   1.4660   1.4854   1.4936
     1.5073   1.5408   1.5747   1.5851   1.6116   1.6420   1.6637   1.6974

          k = 0.3745 0.1266 0.1289 (299857 PWs)   bands (ev):

   -17.5202 -17.4917 -17.4551 -17.4307 -17.4302 -17.4290 -17.4242 -17.4188
   -14.2969 -14.2921 -14.2900 -14.2850 -14.2824 -14.2806 -14.2789 -14.2756
   -14.2747 -14.2715 -14.2700 -14.2656 -14.2649 -14.2610 -14.2583 -14.2572
   -14.2535 -14.2519 -14.2485 -14.2483 -14.2482 -14.2479 -14.2474 -14.2470
   -14.2449 -14.2399 -14.2393 -14.2390 -14.2387 -14.2382 -14.2370 -14.2352
   -14.2315 -14.2305 -14.2297 -14.2292 -14.2226 -14.2208 -14.2187 -14.2113
   -10.4887 -10.4662 -10.4575 -10.4555 -10.4454 -10.4446 -10.4277 -10.4244
    -9.6501  -9.5906  -9.4928  -9.4816  -9.4210  -9.4063  -9.3337  -9.3047
    -9.2883  -9.2794  -9.2478  -9.2342  -9.2017  -9.1910  -9.1812  -9.1532
    -9.1320  -9.1182  -9.1078  -9.0911  -9.0535  -9.0247  -9.0221  -8.9888
    -6.9755  -6.9592  -6.9514  -6.9445  -6.9404  -6.9346  -6.9239  -6.9182
    -6.9118  -6.8768  -6.8237  -6.8069  -6.8044  -6.7907  -6.7795  -6.7771
    -5.7867  -5.6128  -5.3484  -5.3424  -5.1857  -5.1693  -4.9272  -4.8657
    -4.8358  -4.8105  -4.8091  -4.8052  -4.7912  -4.7789  -4.7752  -4.6833
    -2.8005  -2.7773  -2.7725  -2.7619  -2.7570  -2.7527  -2.7434  -2.7424
    -2.7329  -2.7266  -2.7184  -2.7125  -2.7087  -2.7041  -2.7004  -2.6937
    -0.8643  -0.8235  -0.8086  -0.7701  -0.7510  -0.7151  -0.6335  -0.6025
    -0.4531  -0.3826  -0.2990  -0.2273   0.0863   0.1563   0.2598   0.2822
     0.3118   0.3253   0.3440   0.3644   0.4268   0.4394   0.4527   0.5225
     0.5455   0.6070   0.6193   0.6588   0.7001   0.7829   0.8112   0.8175
     0.8714   0.8926   0.9324   0.9714   0.9846   1.0119   1.0172   1.0320
     1.0489   1.0606   1.0925   1.1043   1.1205   1.1484   1.1932   1.2068
     1.2221   1.2329   1.2375   1.2470   1.2732   1.2805   1.2944   1.3072
     1.3220   1.3425   1.3839   1.4212   1.4486   1.4730   1.4936   1.5490
     1.5659   1.5812   1.5932   1.6010   1.6322   1.6402   1.8720   1.8960

          k = 0.3745 0.1266 0.3867 (299867 PWs)   bands (ev):

   -17.5202 -17.4917 -17.4551 -17.4307 -17.4302 -17.4290 -17.4242 -17.4188
   -14.2958 -14.2909 -14.2881 -14.2858 -14.2827 -14.2820 -14.2785 -14.2766
   -14.2729 -14.2714 -14.2701 -14.2677 -14.2644 -14.2603 -14.2583 -14.2572
   -14.2545 -14.2519 -14.2491 -14.2485 -14.2482 -14.2479 -14.2474 -14.2470
   -14.2449 -14.2399 -14.2393 -14.2390 -14.2387 -14.2383 -14.2370 -14.2352
   -14.2315 -14.2305 -14.2297 -14.2292 -14.2226 -14.2208 -14.2187 -14.2113
   -10.4879 -10.4653 -10.4581 -10.4546 -10.4461 -10.4449 -10.4277 -10.4252
    -9.6168  -9.5552  -9.5515  -9.4929  -9.4585  -9.4019  -9.3859  -9.3495
    -9.2468  -9.2291  -9.2162  -9.2041  -9.1917  -9.1813  -9.1629  -9.1546
    -9.1365  -9.1309  -9.1151  -9.0801  -9.0708  -9.0420  -9.0221  -9.0004
    -6.9810  -6.9526  -6.9506  -6.9448  -6.9399  -6.9360  -6.9230  -6.9194
    -6.9092  -6.8827  -6.8186  -6.8009  -6.7969  -6.7923  -6.7861  -6.7821
    -5.6684  -5.4953  -5.4857  -5.3131  -5.2350  -5.0846  -5.0594  -4.9378
    -4.8346  -4.8109  -4.8084  -4.8009  -4.7963  -4.7858  -4.7752  -4.7527
    -2.7997  -2.7742  -2.7676  -2.7624  -2.7541  -2.7518  -2.7469  -2.7394
    -2.7345  -2.7257  -2.7186  -2.7125  -2.7109  -2.7052  -2.7011  -2.6956
    -0.7877  -0.7411  -0.7265  -0.6779  -0.5269  -0.4587  -0.4297  -0.3984
    -0.3543  -0.3070  -0.2887  -0.2689   0.0602   0.0686   0.1223   0.1466
     0.2099   0.2290   0.2484   0.3111   0.4021   0.4090   0.4201   0.4293
     0.5178   0.5642   0.6178   0.6561   0.6670   0.7166   0.7312   0.7836
     0.8130   0.8677   0.8746   0.9036   0.9224   0.9686   1.0105   1.0287
     1.0336   1.0488   1.0537   1.0747   1.1079   1.1355   1.1621   1.1678
     1.2164   1.2489   1.2535   1.2660   1.2791   1.2973   1.3097   1.3287
     1.3506   1.3740   1.3890   1.4166   1.4461   1.4699   1.4732   1.5268
     1.5396   1.5573   1.5777   1.5832   1.6240   1.6502   1.6934   1.7198

          k = 0.3745 0.3798 0.1289 (299793 PWs)   bands (ev):

   -17.5202 -17.4917 -17.4551 -17.4307 -17.4302 -17.4290 -17.4242 -17.4188
   -14.2969 -14.2914 -14.2899 -14.2846 -14.2821 -14.2795 -14.2782 -14.2758
   -14.2740 -14.2723 -14.2710 -14.2658 -14.2651 -14.2620 -14.2583 -14.2572
   -14.2537 -14.2519 -14.2488 -14.2485 -14.2483 -14.2479 -14.2474 -14.2470
   -14.2449 -14.2399 -14.2393 -14.2390 -14.2387 -14.2382 -14.2370 -14.2352
   -14.2315 -14.2305 -14.2297 -14.2292 -14.2226 -14.2208 -14.2187 -14.2113
   -10.4880 -10.4664 -10.4568 -10.4526 -10.4479 -10.4449 -10.4282 -10.4253
    -9.6101  -9.5723  -9.5507  -9.4577  -9.4529  -9.4016  -9.3826  -9.3349
    -9.2900  -9.2807  -9.2520  -9.2395  -9.1895  -9.1488  -9.1421  -9.1261
    -9.1165  -9.1107  -9.0971  -9.0860  -9.0582  -9.0438  -9.0391  -9.0127
    -6.9753  -6.9593  -6.9515  -6.9442  -6.9409  -6.9345  -6.9244  -6.9181
    -6.9106  -6.8765  -6.8232  -6.8068  -6.8038  -6.7915  -6.7800  -6.7780
    -5.6706  -5.5069  -5.4789  -5.3216  -5.2414  -5.0697  -5.0425  -4.9472
    -4.8375  -4.8172  -4.8059  -4.8011  -4.7953  -4.7825  -4.7725  -4.7438
    -2.7936  -2.7789  -2.7685  -2.7580  -2.7534  -2.7510  -2.7439  -2.7425
    -2.7351  -2.7298  -2.7216  -2.7167  -2.7117  -2.7058  -2.6995  -2.6927
    -0.8384  -0.7986  -0.7607  -0.7119  -0.5017  -0.4740  -0.4491  -0.3434
    -0.3284  -0.3028  -0.2726  -0.2316   0.0628   0.1305   0.1453   0.2187
     0.2814   0.2898   0.3185   0.3292   0.3461   0.3657   0.3811   0.4420
     0.5388   0.5742   0.5891   0.6029   0.7063   0.7177   0.7358   0.7557
     0.7833   0.8058   0.8611   0.8844   0.9013   0.9205   0.9603   0.9665
     1.0164   1.0542   1.0822   1.1136   1.1368   1.1714   1.1805   1.1901
     1.2131   1.2290   1.2369   1.2595   1.2711   1.2951   1.3123   1.3483
     1.3875   1.4151   1.4215   1.4275   1.4565   1.4700   1.4819   1.4916
     1.5179   1.5371   1.5476   1.5560   1.5704   1.6505   1.6721   1.6936

          k = 0.3745 0.3798 0.3867 (299817 PWs)   bands (ev):

   -17.5202 -17.4917 -17.4551 -17.4307 -17.4302 -17.4290 -17.4242 -17.4188
   -14.2957 -14.2901 -14.2881 -14.2856 -14.2827 -14.2807 -14.2778 -14.2757
   -14.2730 -14.2722 -14.2710 -14.2683 -14.2645 -14.2612 -14.2583 -14.2572
   -14.2546 -14.2519 -14.2497 -14.2485 -14.2483 -14.2479 -14.2474 -14.2470
   -14.2449 -14.2399 -14.2393 -14.2390 -14.2387 -14.2383 -14.2370 -14.2352
   -14.2315 -14.2305 -14.2297 -14.2292 -14.2226 -14.2208 -14.2187 -14.2113
   -10.4874 -10.4644 -10.4587 -10.4519 -10.4480 -10.4447 -10.4287 -10.4261
    -9.5797  -9.5378  -9.5210  -9.5147  -9.4732  -9.4555  -9.4286  -9.3897
    -9.2476  -9.2223  -9.1995  -9.1899  -9.1790  -9.1594  -9.1456  -9.1397
    -9.1270  -9.1164  -9.0975  -9.0811  -9.0677  -9.0573  -9.0460  -9.0199
    -6.9808  -6.9526  -6.9509  -6.9441  -6.9397  -6.9364  -6.9230  -6.9192
    -6.9084  -6.8828  -6.8185  -6.8009  -6.7966  -6.7928  -6.7863  -6.7824
    -5.5567  -5.3917  -5.3799  -5.3635  -5.2184  -5.2112  -5.1839  -5.0580
    -4.8362  -4.8167  -4.8056  -4.8012  -4.7975  -4.7882  -4.7736  -4.7677
    -2.7938  -2.7805  -2.7720  -2.7564  -2.7523  -2.7491  -2.7473  -2.7413
    -2.7349  -2.7292  -2.7201  -2.7133  -2.7104  -2.7039  -2.6992  -2.6933
    -0.5491  -0.5259  -0.4961  -0.4497  -0.4308  -0.3760  -0.3648  -0.3478
    -0.3374  -0.3095  -0.2998  -0.2186   0.0618   0.0780   0.1092   0.1283
     0.1770   0.2012   0.2198   0.2268   0.2788   0.2871   0.2961   0.3552
     0.5890   0.6045   0.6185   0.6409   0.6697   0.6985   0.7265   0.7535
     0.7663   0.7935   0.8334   0.8584   0.8730   0.8967   0.9010   0.9243
     0.9471   0.9705   0.9883   1.0080   1.0322   1.0458   1.0716   1.0886
     1.2355   1.2630   1.2760   1.2818   1.3025   1.3168   1.3324   1.3555
     1.3966   1.4009   1.4165   1.4306   1.4506   1.4635   1.4687   1.4948
     1.4999   1.5344   1.5504   1.5569   1.5645   1.5757   1.5884   1.5917

          k =-0.1248-0.1266 0.1289 (299827 PWs)   bands (ev):

   -17.5202 -17.4917 -17.4551 -17.4309 -17.4301 -17.4290 -17.4242 -17.4187
   -14.2980 -14.2925 -14.2895 -14.2862 -14.2814 -14.2803 -14.2780 -14.2760
   -14.2748 -14.2720 -14.2711 -14.2653 -14.2642 -14.2605 -14.2583 -14.2572
   -14.2529 -14.2519 -14.2485 -14.2483 -14.2482 -14.2480 -14.2474 -14.2470
   -14.2449 -14.2399 -14.2393 -14.2390 -14.2387 -14.2382 -14.2370 -14.2352
   -14.2315 -14.2305 -14.2297 -14.2292 -14.2226 -14.2208 -14.2187 -14.2113
   -10.4889 -10.4670 -10.4578 -10.4559 -10.4470 -10.4434 -10.4265 -10.4232
    -9.6910  -9.5259  -9.5207  -9.5094  -9.3592  -9.3489  -9.3376  -9.3056
    -9.2853  -9.2733  -9.2480  -9.2440  -9.2323  -9.2020  -9.1886  -9.1764
    -9.1634  -9.1514  -9.1219  -9.0871  -9.0339  -9.0132  -8.9959  -8.9802
    -6.9756  -6.9595  -6.9517  -6.9449  -6.9414  -6.9341  -6.9239  -6.9175
    -6.9117  -6.8767  -6.8237  -6.8070  -6.8039  -6.7921  -6.7798  -6.7752
    -5.8990  -5.4816  -5.4517  -5.4462  -5.0596  -5.0414  -5.0085  -4.8454
    -4.8274  -4.8199  -4.8093  -4.8033  -4.7999  -4.7809  -4.7768  -4.5780
    -2.8029  -2.7766  -2.7733  -2.7677  -2.7578  -2.7555  -2.7445  -2.7399
    -2.7326  -2.7270  -2.7202  -2.7100  -2.7044  -2.7022  -2.6984  -2.6936
    -0.8916  -0.8381  -0.8197  -0.8028  -0.7725  -0.7571  -0.7331  -0.7185
    -0.6593  -0.6083  -0.5952  -0.5560   0.2198   0.2907   0.2942   0.3030
     0.3955   0.4204   0.4329   0.4640   0.4834   0.5453   0.5714   0.5831
     0.5989   0.7244   0.7465   0.7808   0.7920   0.8083   0.8803   0.9085
     0.9136   0.9392   0.9463   0.9680   0.9741   0.9871   1.0054   1.0194
     1.0338   1.0764   1.0991   1.1173   1.1316   1.1419   1.1706   1.1852
     1.2052   1.2135   1.2328   1.2382   1.2442   1.2624   1.2783   1.3032
     1.3157   1.3452   1.3606   1.4202   1.4618   1.4687   1.4870   1.5588
     1.5934   1.6150   1.6716   1.6773   1.7112   1.7820   1.8510   2.0444

          k =-0.1248 0.1266-0.1289 (299827 PWs)   bands (ev):

   -17.5202 -17.4917 -17.4551 -17.4309 -17.4301 -17.4290 -17.4242 -17.4187
   -14.2980 -14.2925 -14.2895 -14.2862 -14.2814 -14.2803 -14.2780 -14.2760
   -14.2748 -14.2720 -14.2711 -14.2653 -14.2642 -14.2605 -14.2583 -14.2572
   -14.2529 -14.2519 -14.2485 -14.2483 -14.2482 -14.2480 -14.2474 -14.2470
   -14.2449 -14.2399 -14.2393 -14.2390 -14.2387 -14.2382 -14.2370 -14.2352
   -14.2315 -14.2305 -14.2297 -14.2292 -14.2226 -14.2208 -14.2187 -14.2113
   -10.4891 -10.4678 -10.4580 -10.4556 -10.4477 -10.4431 -10.4258 -10.4226
    -9.6960  -9.5221  -9.5150  -9.5023  -9.3725  -9.3561  -9.3403  -9.2986
    -9.2849  -9.2745  -9.2541  -9.2386  -9.2295  -9.2023  -9.1890  -9.1768
    -9.1613  -9.1473  -9.1220  -9.0883  -9.0356  -9.0146  -8.9950  -8.9790
    -6.9755  -6.9593  -6.9515  -6.9450  -6.9409  -6.9344  -6.9241  -6.9178
    -6.9121  -6.8767  -6.8237  -6.8071  -6.8043  -6.7911  -6.7804  -6.7751
    -5.8992  -5.4809  -5.4516  -5.4445  -5.0592  -5.0454  -5.0144  -4.8443
    -4.8257  -4.8203  -4.8081  -4.8025  -4.7977  -4.7788  -4.7752  -4.5806
    -2.8032  -2.7775  -2.7718  -2.7686  -2.7576  -2.7563  -2.7434  -2.7391
    -2.7325  -2.7291  -2.7204  -2.7109  -2.7046  -2.7016  -2.6967  -2.6932
    -0.9030  -0.8753  -0.8100  -0.7851  -0.7722  -0.7485  -0.7286  -0.7115
    -0.6632  -0.6072  -0.5936  -0.5382   0.2175   0.2847   0.3056   0.3115
     0.3770   0.4055   0.4372   0.4511   0.4731   0.5136   0.5773   0.5870
     0.6321   0.7241   0.7452   0.7665   0.7830   0.8179   0.8665   0.8779
     0.9108   0.9340   0.9550   0.9703   0.9953   1.0147   1.0271   1.0525
     1.0610   1.0778   1.0957   1.1121   1.1276   1.1403   1.1533   1.1755
     1.1974   1.2086   1.2150   1.2271   1.2369   1.2730   1.2780   1.3024
     1.3368   1.3449   1.3566   1.4042   1.4564   1.4752   1.4975   1.5626
     1.5918   1.6146   1.6347   1.6662   1.7695   1.7780   1.8442   2.0673

          k = 0.1248-0.1266-0.1289 (299827 PWs)   bands (ev):

   -17.5202 -17.4917 -17.4551 -17.4309 -17.4301 -17.4290 -17.4242 -17.4187
   -14.2980 -14.2925 -14.2895 -14.2862 -14.2814 -14.2803 -14.2780 -14.2760
   -14.2748 -14.2720 -14.2711 -14.2653 -14.2642 -14.2605 -14.2583 -14.2572
   -14.2529 -14.2519 -14.2485 -14.2483 -14.2482 -14.2480 -14.2474 -14.2470
   -14.2449 -14.2399 -14.2393 -14.2390 -14.2387 -14.2382 -14.2370 -14.2352
   -14.2315 -14.2305 -14.2297 -14.2292 -14.2226 -14.2208 -14.2187 -14.2113
   -10.4891 -10.4677 -10.4580 -10.4556 -10.4478 -10.4430 -10.4258 -10.4226
    -9.6960  -9.5225  -9.5154  -9.5012  -9.3730  -9.3562  -9.3402  -9.2989
    -9.2829  -9.2759  -9.2531  -9.2417  -9.2282  -9.2012  -9.1904  -9.1759
    -9.1604  -9.1474  -9.1231  -9.0878  -9.0359  -9.0142  -8.9952  -8.9789
    -6.9755  -6.9592  -6.9515  -6.9450  -6.9408  -6.9345  -6.9237  -6.9179
    -6.9125  -6.8766  -6.8238  -6.8070  -6.8043  -6.7911  -6.7803  -6.7751
    -5.8993  -5.4809  -5.4515  -5.4443  -5.0595  -5.0454  -5.0145  -4.8444
    -4.8256  -4.8201  -4.8081  -4.8025  -4.7978  -4.7786  -4.7753  -4.5807
    -2.8033  -2.7784  -2.7719  -2.7681  -2.7585  -2.7556  -2.7439  -2.7394
    -2.7326  -2.7282  -2.7206  -2.7091  -2.7050  -2.7010  -2.6973  -2.6937
    -0.9033  -0.8760  -0.8103  -0.7817  -0.7686  -0.7527  -0.7333  -0.7074
    -0.6634  -0.6075  -0.5942  -0.5388   0.2180   0.2850   0.3063   0.3114
     0.3785   0.4016   0.4410   0.4545   0.4684   0.5109   0.5785   0.5861
     0.6322   0.7266   0.7490   0.7652   0.7855   0.8169   0.8692   0.8789
     0.9040   0.9274   0.9562   0.9714   0.9943   1.0062   1.0270   1.0574
     1.0639   1.0813   1.0971   1.1084   1.1286   1.1442   1.1534   1.1740
     1.1989   1.2046   1.2124   1.2296   1.2398   1.2700   1.2808   1.2986
     1.3413   1.3450   1.3564   1.4036   1.4557   1.4757   1.4959   1.5626
     1.5924   1.6149   1.6338   1.6661   1.7700   1.7770   1.8448   2.0680

          k =-0.1248-0.1266 0.3867 (299842 PWs)   bands (ev):

   -17.5202 -17.4917 -17.4551 -17.4309 -17.4301 -17.4290 -17.4242 -17.4188
   -14.2971 -14.2911 -14.2883 -14.2864 -14.2821 -14.2809 -14.2781 -14.2765
   -14.2736 -14.2721 -14.2709 -14.2677 -14.2631 -14.2601 -14.2583 -14.2572
   -14.2539 -14.2519 -14.2490 -14.2485 -14.2482 -14.2480 -14.2474 -14.2470
   -14.2449 -14.2399 -14.2393 -14.2390 -14.2387 -14.2383 -14.2370 -14.2352
   -14.2315 -14.2305 -14.2297 -14.2292 -14.2226 -14.2208 -14.2187 -14.2113
   -10.4882 -10.4657 -10.4590 -10.4548 -10.4467 -10.4451 -10.4266 -10.4237
    -9.6548  -9.5906  -9.4907  -9.4796  -9.4273  -9.4154  -9.3339  -9.3041
    -9.2859  -9.2552  -9.2243  -9.2159  -9.2054  -9.1967  -9.1789  -9.1672
    -9.1537  -9.1239  -9.1136  -9.0931  -9.0633  -9.0418  -8.9970  -8.9842
    -6.9810  -6.9538  -6.9502  -6.9450  -6.9402  -6.9359  -6.9229  -6.9192
    -6.9091  -6.8829  -6.8186  -6.8009  -6.7959  -6.7934  -6.7864  -6.7814
    -5.7777  -5.5921  -5.3656  -5.3341  -5.1845  -5.1529  -4.9661  -4.8658
    -4.8346  -4.8215  -4.8098  -4.8042  -4.7914  -4.7839  -4.7677  -4.6953
    -2.8016  -2.7733  -2.7701  -2.7656  -2.7552  -2.7517  -2.7464  -2.7400
    -2.7322  -2.7253  -2.7225  -2.7133  -2.7071  -2.7031  -2.7003  -2.6943
    -0.8093  -0.7891  -0.7591  -0.7247  -0.7164  -0.6985  -0.6509  -0.6424
    -0.4809  -0.4040  -0.3759  -0.2742   0.0428   0.1183   0.1374   0.2285
     0.3308   0.3514   0.3862   0.4051   0.4329   0.4468   0.4639   0.4889
     0.4993   0.5381   0.7468   0.7639   0.7815   0.8032   0.8683   0.8944
     0.9051   0.9255   0.9428   0.9690   0.9845   1.0118   1.0290   1.0450
     1.0518   1.0672   1.0750   1.0960   1.1068   1.1297   1.1343   1.1676
     1.2000   1.2078   1.2246   1.2320   1.2512   1.2660   1.2707   1.3069
     1.3489   1.3627   1.3795   1.4126   1.4339   1.4551   1.4602   1.5403
     1.5864   1.6088   1.6363   1.6642   1.6771   1.6801   1.7464   1.8476

          k =-0.1248 0.1266-0.3867 (299842 PWs)   bands (ev):

   -17.5202 -17.4917 -17.4551 -17.4309 -17.4301 -17.4290 -17.4242 -17.4188
   -14.2971 -14.2911 -14.2883 -14.2864 -14.2821 -14.2809 -14.2781 -14.2765
   -14.2736 -14.2721 -14.2709 -14.2677 -14.2631 -14.2601 -14.2583 -14.2572
   -14.2539 -14.2519 -14.2491 -14.2485 -14.2482 -14.2480 -14.2474 -14.2470
   -14.2449 -14.2399 -14.2393 -14.2390 -14.2387 -14.2383 -14.2370 -14.2352
   -14.2315 -14.2305 -14.2297 -14.2292 -14.2226 -14.2208 -14.2187 -14.2113
   -10.4883 -10.4663 -10.4593 -10.4544 -10.4471 -10.4452 -10.4260 -10.4230
    -9.6592  -9.5920  -9.4826  -9.4729  -9.4233  -9.4134  -9.3496  -9.3135
    -9.2844  -9.2545  -9.2233  -9.2127  -9.2048  -9.1978  -9.1806  -9.1653
    -9.1468  -9.1259  -9.1140  -9.0936  -9.0643  -9.0433  -8.9954  -8.9832
    -6.9810  -6.9535  -6.9500  -6.9452  -6.9404  -6.9360  -6.9233  -6.9193
    -6.9092  -6.8829  -6.8186  -6.8008  -6.7965  -6.7927  -6.7866  -6.7814
    -5.7769  -5.5902  -5.3659  -5.3359  -5.1864  -5.1563  -4.9637  -4.8598
    -4.8355  -4.8239  -4.8101  -4.8049  -4.7902  -4.7825  -4.7665  -4.6980
    -2.8018  -2.7729  -2.7711  -2.7645  -2.7553  -2.7515  -2.7456  -2.7405
    -2.7312  -2.7287  -2.7225  -2.7137  -2.7077  -2.7019  -2.6996  -2.6935
    -0.8553  -0.7960  -0.7483  -0.7118  -0.6928  -0.6868  -0.6468  -0.6314
    -0.4926  -0.3988  -0.3721  -0.2787   0.0380   0.1175   0.1394   0.2248
     0.3223   0.3487   0.3901   0.4077   0.4174   0.4520   0.4631   0.4736
     0.4952   0.5626   0.7588   0.7700   0.7825   0.8063   0.8153   0.8460
     0.9235   0.9410   0.9616   0.9773   0.9939   1.0171   1.0294   1.0452
     1.0549   1.0564   1.0751   1.0947   1.1022   1.1296   1.1546   1.1662
     1.1839   1.2047   1.2188   1.2351   1.2478   1.2529   1.2832   1.3401
     1.3613   1.3671   1.3797   1.4089   1.4308   1.4541   1.4632   1.5407
     1.5808   1.6061   1.6244   1.6407   1.6493   1.6679   1.7967   1.8792

          k = 0.1248-0.1266-0.3867 (299842 PWs)   bands (ev):

   -17.5202 -17.4917 -17.4551 -17.4309 -17.4301 -17.4290 -17.4242 -17.4188
   -14.2971 -14.2911 -14.2883 -14.2864 -14.2821 -14.2809 -14.2781 -14.2765
   -14.2736 -14.2721 -14.2709 -14.2677 -14.2631 -14.2601 -14.2583 -14.2572
   -14.2539 -14.2519 -14.2490 -14.2485 -14.2482 -14.2480 -14.2474 -14.2470
   -14.2449 -14.2399 -14.2393 -14.2390 -14.2387 -14.2383 -14.2370 -14.2352
   -14.2315 -14.2305 -14.2297 -14.2292 -14.2226 -14.2208 -14.2187 -14.2113
   -10.4883 -10.4663 -10.4593 -10.4545 -10.4473 -10.4449 -10.4260 -10.4231
    -9.6593  -9.5919  -9.4834  -9.4716  -9.4231  -9.4138  -9.3502  -9.3127
    -9.2849  -9.2548  -9.2227  -9.2135  -9.2044  -9.1979  -9.1814  -9.1625
    -9.1489  -9.1254  -9.1136  -9.0942  -9.0650  -9.0425  -8.9956  -8.9832
    -6.9810  -6.9533  -6.9502  -6.9451  -6.9403  -6.9361  -6.9230  -6.9194
    -6.9097  -6.8827  -6.8186  -6.8009  -6.7962  -6.7929  -6.7866  -6.7813
    -5.7772  -5.5900  -5.3658  -5.3356  -5.1864  -5.1566  -4.9641  -4.8594
    -4.8353  -4.8239  -4.8101  -4.8048  -4.7905  -4.7822  -4.7665  -4.6982
    -2.8019  -2.7734  -2.7716  -2.7644  -2.7554  -2.7508  -2.7462  -2.7402
    -2.7334  -2.7272  -2.7224  -2.7115  -2.7076  -2.7019  -2.7002  -2.6940
    -0.8565  -0.7943  -0.7494  -0.7085  -0.6947  -0.6853  -0.6497  -0.6308
    -0.4918  -0.4014  -0.3710  -0.2799   0.0388   0.1209   0.1371   0.2258
     0.3233   0.3507   0.3868   0.4098   0.4133   0.4492   0.4677   0.4710
     0.4981   0.5642   0.7613   0.7667   0.7729   0.8123   0.8143   0.8447
     0.9240   0.9449   0.9587   0.9812   0.9958   1.0154   1.0315   1.0428
     1.0519   1.0629   1.0750   1.0930   1.0969   1.1268   1.1580   1.1679
     1.1827   1.2057   1.2203   1.2357   1.2432   1.2603   1.2787   1.3419
     1.3593   1.3681   1.3767   1.4100   1.4282   1.4556   1.4645   1.5395
     1.5834   1.6069   1.6202   1.6385   1.6494   1.6715   1.7969   1.8799

          k =-0.1248-0.3798 0.1289 (299811 PWs)   bands (ev):

   -17.5202 -17.4917 -17.4551 -17.4309 -17.4301 -17.4290 -17.4242 -17.4188
   -14.2980 -14.2918 -14.2894 -14.2858 -14.2806 -14.2795 -14.2773 -14.2762
   -14.2740 -14.2727 -14.2721 -14.2658 -14.2643 -14.2614 -14.2583 -14.2572
   -14.2530 -14.2519 -14.2488 -14.2485 -14.2483 -14.2480 -14.2474 -14.2469
   -14.2449 -14.2399 -14.2393 -14.2390 -14.2387 -14.2382 -14.2370 -14.2352
   -14.2315 -14.2305 -14.2297 -14.2292 -14.2226 -14.2208 -14.2187 -14.2113
   -10.4878 -10.4656 -10.4567 -10.4542 -10.4473 -10.4450 -10.4283 -10.4253
    -9.6512  -9.5771  -9.4990  -9.4892  -9.4124  -9.4052  -9.3346  -9.3025
    -9.2874  -9.2797  -9.2545  -9.2427  -9.2345  -9.1807  -9.1792  -9.1583
    -9.1373  -9.1011  -9.0902  -9.0786  -9.0506  -9.0280  -9.0154  -9.0059
    -6.9753  -6.9592  -6.9513  -6.9449  -6.9409  -6.9346  -6.9245  -6.9180
    -6.9114  -6.8764  -6.8232  -6.8069  -6.8043  -6.7908  -6.7816  -6.7760
    -5.7794  -5.5912  -5.3706  -5.3370  -5.1946  -5.1497  -4.9481  -4.8699
    -4.8346  -4.8159  -4.8085  -4.8009  -4.7963  -4.7853  -4.7684  -4.6870
    -2.7948  -2.7808  -2.7681  -2.7612  -2.7571  -2.7526  -2.7452  -2.7422
    -2.7331  -2.7297  -2.7218  -2.7161  -2.7077  -2.7018  -2.6986  -2.6937
    -0.8648  -0.8284  -0.7912  -0.7840  -0.7482  -0.7332  -0.6515  -0.5846
    -0.4340  -0.3868  -0.2803  -0.2276   0.0887   0.1430   0.2613   0.2869
     0.3170   0.3360   0.3489   0.3674   0.4480   0.4559   0.4731   0.5415
     0.5494   0.6197   0.6266   0.6402   0.7158   0.8101   0.8186   0.8296
     0.8881   0.9121   0.9249   0.9535   0.9730   0.9786   0.9924   1.0071
     1.0311   1.0494   1.0956   1.1108   1.1374   1.1547   1.1909   1.2029
     1.2157   1.2253   1.2412   1.2536   1.2637   1.2774   1.2998   1.3210
     1.3352   1.3487   1.3966   1.4205   1.4629   1.4810   1.4934   1.5170
     1.5545   1.5694   1.5803   1.5957   1.6201   1.6489   1.8113   1.8597

          k =-0.1248 0.3798-0.1289 (299811 PWs)   bands (ev):

   -17.5202 -17.4917 -17.4551 -17.4309 -17.4301 -17.4290 -17.4242 -17.4188
   -14.2980 -14.2918 -14.2894 -14.2858 -14.2806 -14.2795 -14.2773 -14.2762
   -14.2740 -14.2727 -14.2721 -14.2658 -14.2643 -14.2614 -14.2583 -14.2572
   -14.2530 -14.2519 -14.2488 -14.2485 -14.2483 -14.2480 -14.2474 -14.2469
   -14.2449 -14.2399 -14.2393 -14.2390 -14.2387 -14.2382 -14.2370 -14.2352
   -14.2315 -14.2305 -14.2297 -14.2292 -14.2226 -14.2208 -14.2187 -14.2113
   -10.4880 -10.4664 -10.4571 -10.4537 -10.4484 -10.4441 -10.4277 -10.4247
    -9.6615  -9.5648  -9.4905  -9.4792  -9.4324  -9.4095  -9.3361  -9.2969
    -9.2923  -9.2814  -9.2570  -9.2381  -9.2318  -9.1817  -9.1801  -9.1576
    -9.1354  -9.0981  -9.0899  -9.0770  -9.0544  -9.0321  -9.0162  -9.0014
    -6.9752  -6.9590  -6.9511  -6.9450  -6.9401  -6.9351  -6.9249  -6.9183
    -6.9116  -6.8764  -6.8233  -6.8070  -6.8047  -6.7896  -6.7824  -6.7759
    -5.7798  -5.5910  -5.3710  -5.3304  -5.1939  -5.1580  -4.9628  -4.8532
    -4.8344  -4.8206  -4.8067  -4.7998  -4.7914  -4.7843  -4.7641  -4.6956
    -2.7954  -2.7799  -2.7696  -2.7621  -2.7557  -2.7524  -2.7459  -2.7422
    -2.7320  -2.7287  -2.7247  -2.7163  -2.7081  -2.7014  -2.6974  -2.6929
    -0.8714  -0.8422  -0.7933  -0.7744  -0.7474  -0.7349  -0.6562  -0.5894
    -0.4176  -0.3637  -0.2556  -0.2126   0.0771   0.1045   0.2503   0.2704
     0.3195   0.3292   0.3622   0.3830   0.4239   0.4343   0.4596   0.5098
     0.5477   0.6212   0.6517   0.6842   0.7123   0.8138   0.8187   0.8309
     0.8889   0.9033   0.9215   0.9723   0.9773   0.9876   1.0023   1.0251
     1.0380   1.0535   1.0904   1.1054   1.1363   1.1438   1.1786   1.1991
     1.2136   1.2243   1.2421   1.2579   1.2621   1.2781   1.3004   1.3296
     1.3357   1.3536   1.3915   1.4125   1.4450   1.4699   1.4922   1.5241
     1.5418   1.5629   1.5759   1.5918   1.6251   1.6840   1.7903   1.8981

          k = 0.1248-0.3798-0.1289 (299811 PWs)   bands (ev):

   -17.5202 -17.4917 -17.4551 -17.4309 -17.4301 -17.4290 -17.4242 -17.4188
   -14.2980 -14.2918 -14.2894 -14.2858 -14.2806 -14.2795 -14.2773 -14.2762
   -14.2740 -14.2727 -14.2721 -14.2658 -14.2643 -14.2614 -14.2583 -14.2572
   -14.2530 -14.2519 -14.2488 -14.2485 -14.2483 -14.2480 -14.2474 -14.2469
   -14.2449 -14.2399 -14.2393 -14.2390 -14.2387 -14.2382 -14.2370 -14.2352
   -14.2315 -14.2305 -14.2297 -14.2292 -14.2226 -14.2208 -14.2187 -14.2113
   -10.4880 -10.4664 -10.4571 -10.4538 -10.4486 -10.4438 -10.4276 -10.4247
    -9.6620  -9.5638  -9.4896  -9.4792  -9.4330  -9.4121  -9.3335  -9.2997
    -9.2888  -9.2798  -9.2587  -9.2421  -9.2307  -9.1823  -9.1776  -9.1572
    -9.1363  -9.0982  -9.0902  -9.0774  -9.0538  -9.0312  -9.0171  -9.0013
    -6.9753  -6.9589  -6.9511  -6.9450  -6.9402  -6.9351  -6.9244  -6.9182
    -6.9122  -6.8762  -6.8233  -6.8069  -6.8047  -6.7896  -6.7823  -6.7759
    -5.7800  -5.5907  -5.3710  -5.3301  -5.1941  -5.1582  -4.9634  -4.8527
    -4.8341  -4.8207  -4.8068  -4.7998  -4.7913  -4.7840  -4.7640  -4.6961
    -2.7957  -2.7799  -2.7702  -2.7615  -2.7563  -2.7516  -2.7463  -2.7419
    -2.7343  -2.7278  -2.7246  -2.7139  -2.7079  -2.7014  -2.6976  -2.6936
    -0.8705  -0.8440  -0.7900  -0.7840  -0.7388  -0.7349  -0.6556  -0.5887
    -0.4193  -0.3662  -0.2557  -0.2144   0.0788   0.1074   0.2515   0.2710
     0.3185   0.3333   0.3625   0.3792   0.4224   0.4295   0.4548   0.5140
     0.5586   0.6200   0.6440   0.6856   0.7148   0.8144   0.8211   0.8317
     0.8917   0.9041   0.9203   0.9644   0.9770   0.9906   0.9972   1.0214
     1.0370   1.0528   1.0905   1.1071   1.1346   1.1486   1.1785   1.1969
     1.2144   1.2278   1.2396   1.2596   1.2673   1.2771   1.2959   1.3248
     1.3419   1.3533   1.3965   1.4061   1.4443   1.4698   1.4919   1.5285
     1.5421   1.5639   1.5730   1.5894   1.6276   1.6844   1.7899   1.8984

          k =-0.1248-0.3798 0.3867 (299797 PWs)   bands (ev):

   -17.5202 -17.4917 -17.4551 -17.4309 -17.4301 -17.4290 -17.4242 -17.4188
   -14.2971 -14.2904 -14.2882 -14.2862 -14.2814 -14.2803 -14.2775 -14.2755
   -14.2737 -14.2727 -14.2719 -14.2684 -14.2631 -14.2611 -14.2583 -14.2572
   -14.2540 -14.2519 -14.2496 -14.2485 -14.2483 -14.2480 -14.2474 -14.2470
   -14.2449 -14.2399 -14.2393 -14.2390 -14.2387 -14.2383 -14.2370 -14.2352
   -14.2315 -14.2305 -14.2297 -14.2292 -14.2226 -14.2208 -14.2187 -14.2113
   -10.4873 -10.4635 -10.4589 -10.4535 -10.4475 -10.4446 -10.4288 -10.4261
    -9.6173  -9.5571  -9.5443  -9.4826  -9.4634  -9.4036  -9.3821  -9.3368
    -9.2888  -9.2566  -9.2108  -9.2074  -9.1998  -9.1710  -9.1562  -9.1471
    -9.1247  -9.1172  -9.1117  -9.0727  -9.0684  -9.0452  -9.0234  -9.0080
    -6.9808  -6.9531  -6.9503  -6.9448  -6.9405  -6.9363  -6.9234  -6.9191
    -6.9087  -6.8828  -6.8185  -6.8008  -6.7961  -6.7929  -6.7869  -6.7818
    -5.6610  -5.4805  -5.4732  -5.2931  -5.2578  -5.0930  -5.0821  -4.9464
    -4.8348  -4.8161  -4.8083  -4.8019  -4.7953  -4.7863  -4.7723  -4.7520
    -2.7946  -2.7819  -2.7722  -2.7603  -2.7543  -2.7491  -2.7456  -2.7420
    -2.7322  -2.7306  -2.7213  -2.7129  -2.7071  -2.7021  -2.6996  -2.6929
    -0.7991  -0.7421  -0.7310  -0.6767  -0.5379  -0.4642  -0.4402  -0.3924
    -0.3143  -0.3021  -0.2904  -0.2688   0.0571   0.0969   0.1190   0.1423
     0.2096   0.2542   0.2683   0.3349   0.3699   0.4042   0.4250   0.4334
     0.5180   0.5384   0.6078   0.6315   0.7086   0.7269   0.7937   0.8241
     0.8619   0.8753   0.8971   0.9355   0.9570   0.9674   0.9932   1.0069
     1.0277   1.0324   1.0503   1.0575   1.1015   1.1155   1.1332   1.1551
     1.2053   1.2336   1.2459   1.2520   1.2628   1.2809   1.3041   1.3203
     1.3752   1.3830   1.4049   1.4360   1.4495   1.4636   1.4780   1.4950
     1.5131   1.5329   1.5721   1.5905   1.6122   1.6402   1.6630   1.6989

          k =-0.1248 0.3798-0.3867 (299797 PWs)   bands (ev):

   -17.5202 -17.4917 -17.4551 -17.4309 -17.4301 -17.4290 -17.4242 -17.4188
   -14.2971 -14.2904 -14.2882 -14.2862 -14.2814 -14.2803 -14.2775 -14.2755
   -14.2737 -14.2727 -14.2719 -14.2684 -14.2631 -14.2611 -14.2583 -14.2572
   -14.2540 -14.2519 -14.2496 -14.2485 -14.2483 -14.2480 -14.2474 -14.2470
   -14.2449 -14.2399 -14.2393 -14.2390 -14.2387 -14.2383 -14.2370 -14.2352
   -14.2315 -14.2305 -14.2297 -14.2292 -14.2226 -14.2208 -14.2187 -14.2113
   -10.4875 -10.4641 -10.4592 -10.4532 -10.4480 -10.4446 -10.4281 -10.4253
    -9.6257  -9.5614  -9.5346  -9.4746  -9.4479  -9.4038  -9.3948  -9.3513
    -9.2878  -9.2556  -9.2085  -9.2065  -9.2006  -9.1734  -9.1542  -9.1431
    -9.1276  -9.1167  -9.1053  -9.0776  -9.0708  -9.0491  -9.0192  -9.0058
    -6.9809  -6.9527  -6.9501  -6.9450  -6.9406  -6.9363  -6.9240  -6.9193
    -6.9086  -6.8828  -6.8184  -6.8007  -6.7965  -6.7924  -6.7870  -6.7818
    -5.6592  -5.4784  -5.4726  -5.2979  -5.2608  -5.0915  -5.0872  -4.9345
    -4.8365  -4.8206  -4.8069  -4.8017  -4.7940  -4.7871  -4.7707  -4.7539
    -2.7951  -2.7811  -2.7730  -2.7599  -2.7529  -2.7493  -2.7464  -2.7422
    -2.7322  -2.7298  -2.7244  -2.7135  -2.7075  -2.7011  -2.6985  -2.6924
    -0.8165  -0.7558  -0.7248  -0.6722  -0.5287  -0.4556  -0.4297  -0.3823
    -0.3192  -0.2989  -0.2747  -0.2518   0.0424   0.0762   0.1126   0.1402
     0.2002   0.2190   0.2919   0.3195   0.3656   0.4032   0.4253   0.4433
     0.5077   0.5505   0.6205   0.6361   0.6912   0.7244   0.7917   0.8095
     0.8585   0.8896   0.9277   0.9430   0.9674   0.9851   0.9921   1.0027
     1.0210   1.0346   1.0408   1.0518   1.0642   1.1135   1.1306   1.1778
     1.1985   1.2295   1.2430   1.2645   1.2763   1.2850   1.2990   1.3399
     1.3815   1.3980   1.4114   1.4335   1.4469   1.4602   1.4748   1.4824
     1.5105   1.5198   1.5317   1.5629   1.6005   1.6386   1.6990   1.7488

          k = 0.1248-0.3798-0.3867 (299797 PWs)   bands (ev):

   -17.5202 -17.4917 -17.4551 -17.4309 -17.4301 -17.4290 -17.4242 -17.4188
   -14.2971 -14.2904 -14.2882 -14.2862 -14.2814 -14.2803 -14.2775 -14.2755
   -14.2737 -14.2727 -14.2719 -14.2684 -14.2631 -14.2611 -14.2583 -14.2572
   -14.2540 -14.2519 -14.2496 -14.2485 -14.2483 -14.2480 -14.2474 -14.2470
   -14.2449 -14.2399 -14.2393 -14.2390 -14.2387 -14.2383 -14.2370 -14.2352
   -14.2315 -14.2305 -14.2297 -14.2292 -14.2226 -14.2208 -14.2187 -14.2113
   -10.4875 -10.4641 -10.4592 -10.4533 -10.4482 -10.4442 -10.4281 -10.4254
    -9.6270  -9.5605  -9.5310  -9.4787  -9.4490  -9.4038  -9.3935  -9.3499
    -9.2880  -9.2567  -9.2104  -9.2064  -9.1989  -9.1729  -9.1541  -9.1429
    -9.1262  -9.1171  -9.1068  -9.0800  -9.0691  -9.0472  -9.0203  -9.0056
    -6.9809  -6.9526  -6.9502  -6.9450  -6.9406  -6.9364  -6.9235  -6.9193
    -6.9094  -6.8826  -6.8185  -6.8008  -6.7963  -6.7924  -6.7871  -6.7817
    -5.6597  -5.4781  -5.4717  -5.2984  -5.2607  -5.0937  -5.0861  -4.9333
    -4.8365  -4.8207  -4.8068  -4.8017  -4.7941  -4.7866  -4.7711  -4.7543
    -2.7956  -2.7810  -2.7732  -2.7601  -2.7530  -2.7491  -2.7462  -2.7419
    -2.7337  -2.7297  -2.7241  -2.7114  -2.7070  -2.7013  -2.6987  -2.6930
    -0.8165  -0.7555  -0.7275  -0.6720  -0.5242  -0.4488  -0.4251  -0.3816
    -0.3264  -0.2981  -0.2797  -0.2665   0.0466   0.0798   0.1248   0.1420
     0.2010   0.2216   0.2882   0.3084   0.3661   0.4076   0.4268   0.4388
     0.5045   0.5534   0.6215   0.6384   0.6915   0.7228   0.7905   0.8069
     0.8542   0.8911   0.9303   0.9479   0.9646   0.9856   0.9907   1.0036
     1.0191   1.0325   1.0435   1.0514   1.0620   1.1135   1.1343   1.1728
     1.1980   1.2332   1.2509   1.2640   1.2758   1.2848   1.2934   1.3371
     1.3856   1.3917   1.4124   1.4334   1.4494   1.4572   1.4712   1.4869
     1.5060   1.5276   1.5360   1.5601   1.6007   1.6373   1.6999   1.7482

          k =-0.3745-0.1266 0.1289 (299857 PWs)   bands (ev):

   -17.5202 -17.4917 -17.4551 -17.4307 -17.4302 -17.4290 -17.4242 -17.4188
   -14.2969 -14.2921 -14.2900 -14.2850 -14.2824 -14.2806 -14.2789 -14.2756
   -14.2747 -14.2715 -14.2700 -14.2656 -14.2649 -14.2610 -14.2583 -14.2572
   -14.2535 -14.2519 -14.2485 -14.2483 -14.2482 -14.2479 -14.2474 -14.2470
   -14.2449 -14.2399 -14.2393 -14.2390 -14.2387 -14.2382 -14.2370 -14.2352
   -14.2315 -14.2305 -14.2297 -14.2292 -14.2226 -14.2208 -14.2187 -14.2113
   -10.4886 -10.4662 -10.4575 -10.4555 -10.4454 -10.4446 -10.4277 -10.4244
    -9.6492  -9.5912  -9.4925  -9.4841  -9.4182  -9.4079  -9.3337  -9.2988
    -9.2908  -9.2798  -9.2494  -9.2360  -9.2019  -9.1884  -9.1824  -9.1531
    -9.1321  -9.1175  -9.1069  -9.0917  -9.0544  -9.0252  -9.0215  -8.9888
    -6.9755  -6.9591  -6.9514  -6.9446  -6.9404  -6.9345  -6.9243  -6.9183
    -6.9114  -6.8769  -6.8237  -6.8069  -6.8044  -6.7907  -6.7794  -6.7771
    -5.7866  -5.6127  -5.3483  -5.3425  -5.1858  -5.1693  -4.9271  -4.8664
    -4.8358  -4.8103  -4.8091  -4.8053  -4.7915  -4.7788  -4.7753  -4.6825
    -2.8003  -2.7757  -2.7732  -2.7619  -2.7565  -2.7528  -2.7440  -2.7420
    -2.7328  -2.7268  -2.7178  -2.7126  -2.7094  -2.7043  -2.7010  -2.6942
    -0.8684  -0.8252  -0.8093  -0.7659  -0.7519  -0.7128  -0.6335  -0.6020
    -0.4512  -0.3813  -0.2992  -0.2276   0.0849   0.1547   0.2671   0.2807
     0.3097   0.3215   0.3486   0.3607   0.4248   0.4402   0.4580   0.5202
     0.5452   0.6080   0.6166   0.6551   0.7020   0.7819   0.8170   0.8238
     0.8720   0.8907   0.9256   0.9725   0.9836   1.0070   1.0145   1.0289
     1.0537   1.0648   1.0929   1.1023   1.1199   1.1512   1.1948   1.2012
     1.2237   1.2300   1.2402   1.2554   1.2665   1.2795   1.2848   1.3118
     1.3258   1.3472   1.3823   1.4204   1.4483   1.4730   1.5015   1.5427
     1.5581   1.5867   1.5919   1.5999   1.6327   1.6417   1.8725   1.8979

          k =-0.3745 0.1266-0.1289 (299857 PWs)   bands (ev):

   -17.5202 -17.4917 -17.4551 -17.4307 -17.4302 -17.4290 -17.4242 -17.4188
   -14.2969 -14.2921 -14.2900 -14.2850 -14.2824 -14.2806 -14.2789 -14.2756
   -14.2747 -14.2715 -14.2700 -14.2656 -14.2649 -14.2610 -14.2583 -14.2572
   -14.2535 -14.2519 -14.2485 -14.2483 -14.2482 -14.2479 -14.2474 -14.2470
   -14.2449 -14.2399 -14.2393 -14.2390 -14.2387 -14.2382 -14.2370 -14.2352
   -14.2315 -14.2305 -14.2297 -14.2292 -14.2226 -14.2208 -14.2187 -14.2113
   -10.4888 -10.4670 -10.4576 -10.4552 -10.4467 -10.4437 -10.4270 -10.4237
    -9.6615  -9.5762  -9.4875  -9.4685  -9.4377  -9.4165  -9.3303  -9.3050
    -9.2882  -9.2786  -9.2498  -9.2343  -9.2036  -9.1914  -9.1793  -9.1531
    -9.1309  -9.1139  -9.1021  -9.0924  -9.0614  -9.0265  -9.0196  -8.9874
    -6.9755  -6.9590  -6.9512  -6.9446  -6.9397  -6.9350  -6.9246  -6.9185
    -6.9117  -6.8769  -6.8237  -6.8068  -6.8048  -6.7896  -6.7804  -6.7768
    -5.7870  -5.6124  -5.3479  -5.3369  -5.1853  -5.1768  -4.9441  -4.8497
    -4.8352  -4.8161  -4.8075  -4.8016  -4.7866  -4.7774  -4.7708  -4.6913
    -2.8006  -2.7764  -2.7720  -2.7634  -2.7562  -2.7536  -2.7421  -2.7406
    -2.7331  -2.7289  -2.7206  -2.7121  -2.7075  -2.7051  -2.6990  -2.6940
    -0.8763  -0.8311  -0.8164  -0.7615  -0.7505  -0.7120  -0.6387  -0.6063
    -0.4336  -0.3607  -0.2727  -0.2137   0.0736   0.1159   0.2458   0.2669
     0.3155   0.3282   0.3532   0.3680   0.4103   0.4211   0.4408   0.5085
     0.5340   0.6117   0.6292   0.6791   0.7240   0.7820   0.8070   0.8365
     0.8634   0.9074   0.9545   0.9697   0.9875   0.9949   1.0137   1.0294
     1.0562   1.0737   1.0915   1.1068   1.1233   1.1410   1.1898   1.2043
     1.2214   1.2312   1.2387   1.2515   1.2685   1.2734   1.2818   1.3101
     1.3278   1.3511   1.3745   1.4214   1.4343   1.4714   1.4950   1.5443
     1.5646   1.5760   1.5814   1.5942   1.6175   1.6954   1.8497   1.9355

          k = 0.3745-0.1266-0.1289 (299857 PWs)   bands (ev):

   -17.5202 -17.4917 -17.4551 -17.4307 -17.4302 -17.4290 -17.4242 -17.4188
   -14.2969 -14.2921 -14.2900 -14.2850 -14.2824 -14.2806 -14.2789 -14.2756
   -14.2747 -14.2715 -14.2700 -14.2656 -14.2649 -14.2610 -14.2583 -14.2572
   -14.2535 -14.2519 -14.2485 -14.2483 -14.2482 -14.2479 -14.2474 -14.2470
   -14.2449 -14.2399 -14.2393 -14.2390 -14.2387 -14.2382 -14.2370 -14.2352
   -14.2315 -14.2305 -14.2297 -14.2292 -14.2226 -14.2208 -14.2187 -14.2113
   -10.4888 -10.4670 -10.4576 -10.4552 -10.4467 -10.4437 -10.4270 -10.4238
    -9.6611  -9.5772  -9.4884  -9.4674  -9.4379  -9.4141  -9.3341  -9.3029
    -9.2894  -9.2785  -9.2479  -9.2356  -9.2033  -9.1891  -9.1819  -9.1522
    -9.1319  -9.1138  -9.1011  -9.0927  -9.0620  -9.0260  -9.0198  -8.9874
    -6.9755  -6.9589  -6.9512  -6.9446  -6.9397  -6.9350  -6.9241  -6.9185
    -6.9122  -6.8768  -6.8237  -6.8068  -6.8048  -6.7897  -6.7803  -6.7768
    -5.7871  -5.6125  -5.3479  -5.3366  -5.1856  -5.1767  -4.9437  -4.8500
    -4.8352  -4.8161  -4.8075  -4.8018  -4.7867  -4.7774  -4.7711  -4.6910
    -2.8007  -2.7775  -2.7718  -2.7628  -2.7568  -2.7534  -2.7424  -2.7412
    -2.7326  -2.7274  -2.7218  -2.7106  -2.7080  -2.7051  -2.6989  -2.6942
    -0.8720  -0.8359  -0.8150  -0.7600  -0.7513  -0.7150  -0.6391  -0.6071
    -0.4312  -0.3594  -0.2729  -0.2138   0.0729   0.1136   0.2564   0.2633
     0.3146   0.3259   0.3531   0.3682   0.4104   0.4226   0.4465   0.5056
     0.5258   0.6089   0.6373   0.6751   0.7260   0.7812   0.8035   0.8268
     0.8615   0.9143   0.9591   0.9670   0.9948   1.0028   1.0178   1.0265
     1.0504   1.0745   1.0882   1.1068   1.1231   1.1355   1.1893   1.2054
     1.2268   1.2297   1.2352   1.2522   1.2694   1.2750   1.2827   1.3075
     1.3369   1.3482   1.3743   1.4191   1.4351   1.4690   1.4925   1.5451
     1.5619   1.5750   1.5854   1.5955   1.6170   1.6945   1.8498   1.9355

          k =-0.3745-0.1266 0.3867 (299867 PWs)   bands (ev):

   -17.5202 -17.4917 -17.4551 -17.4307 -17.4302 -17.4290 -17.4242 -17.4188
   -14.2958 -14.2909 -14.2881 -14.2858 -14.2827 -14.2820 -14.2785 -14.2766
   -14.2729 -14.2714 -14.2701 -14.2677 -14.2644 -14.2603 -14.2583 -14.2572
   -14.2545 -14.2519 -14.2491 -14.2485 -14.2482 -14.2479 -14.2474 -14.2470
   -14.2449 -14.2399 -14.2393 -14.2390 -14.2387 -14.2383 -14.2370 -14.2352
   -14.2315 -14.2305 -14.2297 -14.2292 -14.2226 -14.2208 -14.2187 -14.2113
   -10.4878 -10.4653 -10.4581 -10.4546 -10.4462 -10.4449 -10.4278 -10.4251
    -9.6145  -9.5585  -9.5524  -9.4918  -9.4576  -9.4020  -9.3888  -9.3450
    -9.2499  -9.2287  -9.2156  -9.2013  -9.1927  -9.1827  -9.1621  -9.1572
    -9.1340  -9.1317  -9.1122  -9.0823  -9.0710  -9.0420  -9.0220  -9.0005
    -6.9810  -6.9524  -6.9506  -6.9450  -6.9397  -6.9359  -6.9236  -6.9195
    -6.9085  -6.8829  -6.8186  -6.8010  -6.7966  -6.7924  -6.7862  -6.7821
    -5.6682  -5.4960  -5.4851  -5.3133  -5.2346  -5.0846  -5.0596  -4.9388
    -4.8346  -4.8107  -4.8085  -4.8013  -4.7961  -4.7857  -4.7751  -4.7520
    -2.7995  -2.7731  -2.7672  -2.7624  -2.7544  -2.7516  -2.7477  -2.7394
    -2.7324  -2.7268  -2.7179  -2.7147  -2.7101  -2.7052  -2.7016  -2.6963
    -0.7885  -0.7445  -0.7265  -0.6760  -0.5316  -0.4566  -0.4299  -0.4031
    -0.3449  -0.3073  -0.2809  -0.2668   0.0546   0.0681   0.1141   0.1472
     0.2103   0.2327   0.2479   0.3183   0.4000   0.4049   0.4222   0.4271
     0.5227   0.5619   0.6124   0.6495   0.6728   0.7137   0.7378   0.7880
     0.8069   0.8666   0.8763   0.9039   0.9212   0.9701   1.0072   1.0290
     1.0340   1.0472   1.0553   1.0719   1.1199   1.1356   1.1601   1.1646
     1.2161   1.2462   1.2546   1.2643   1.2774   1.2977   1.3126   1.3266
     1.3543   1.3764   1.3932   1.4154   1.4438   1.4707   1.4742   1.5242
     1.5339   1.5566   1.5723   1.5894   1.6255   1.6481   1.6938   1.7230

          k =-0.3745 0.1266-0.3867 (299867 PWs)   bands (ev):

   -17.5202 -17.4917 -17.4551 -17.4307 -17.4302 -17.4290 -17.4242 -17.4188
   -14.2958 -14.2909 -14.2881 -14.2858 -14.2827 -14.2820 -14.2785 -14.2766
   -14.2729 -14.2714 -14.2701 -14.2677 -14.2644 -14.2603 -14.2583 -14.2572
   -14.2545 -14.2519 -14.2491 -14.2485 -14.2482 -14.2479 -14.2474 -14.2470
   -14.2449 -14.2399 -14.2393 -14.2390 -14.2387 -14.2383 -14.2370 -14.2352
   -14.2315 -14.2305 -14.2297 -14.2292 -14.2226 -14.2208 -14.2187 -14.2113
   -10.4880 -10.4659 -10.4585 -10.4542 -10.4465 -10.4451 -10.4271 -10.4244
    -9.6256  -9.5579  -9.5428  -9.4861  -9.4438  -9.4093  -9.3896  -9.3604
    -9.2489  -9.2273  -9.2156  -9.2048  -9.1937  -9.1821  -9.1613  -9.1525
    -9.1372  -9.1237  -9.1126  -9.0862  -9.0726  -9.0450  -9.0188  -8.9987
    -6.9811  -6.9519  -6.9507  -6.9452  -6.9399  -6.9359  -6.9241  -6.9196
    -6.9086  -6.8829  -6.8186  -6.8009  -6.7970  -6.7919  -6.7864  -6.7821
    -5.6664  -5.4971  -5.4813  -5.3179  -5.2382  -5.0812  -5.0670  -4.9259
    -4.8363  -4.8161  -4.8081  -4.7988  -4.7948  -4.7867  -4.7734  -4.7544
    -2.7998  -2.7723  -2.7690  -2.7608  -2.7551  -2.7518  -2.7449  -2.7404
    -2.7329  -2.7282  -2.7214  -2.7144  -2.7095  -2.7037  -2.7004  -2.6961
    -0.8080  -0.7436  -0.7371  -0.6727  -0.5124  -0.4430  -0.4188  -0.3855
    -0.3606  -0.3010  -0.2720  -0.2568   0.0418   0.0490   0.1211   0.1367
     0.1873   0.2245   0.2512   0.2973   0.3971   0.4046   0.4267   0.4385
     0.5091   0.5781   0.6284   0.6532   0.6744   0.7047   0.7281   0.7779
     0.8081   0.8592   0.8841   0.9327   0.9441   0.9755   0.9938   1.0123
     1.0275   1.0383   1.0558   1.0779   1.0967   1.1449   1.1592   1.1899
     1.2126   1.2445   1.2605   1.2665   1.2766   1.2908   1.3124   1.3588
     1.3615   1.3702   1.3804   1.4140   1.4554   1.4767   1.4868   1.5105
     1.5204   1.5335   1.5573   1.5717   1.5931   1.6699   1.7110   1.7683

          k = 0.3745-0.1266-0.3867 (299867 PWs)   bands (ev):

   -17.5202 -17.4917 -17.4551 -17.4307 -17.4302 -17.4290 -17.4242 -17.4188
   -14.2958 -14.2909 -14.2881 -14.2858 -14.2827 -14.2820 -14.2785 -14.2766
   -14.2729 -14.2714 -14.2701 -14.2677 -14.2644 -14.2603 -14.2583 -14.2572
   -14.2545 -14.2519 -14.2491 -14.2485 -14.2482 -14.2479 -14.2474 -14.2470
   -14.2449 -14.2399 -14.2393 -14.2390 -14.2387 -14.2383 -14.2370 -14.2352
   -14.2315 -14.2305 -14.2297 -14.2292 -14.2226 -14.2208 -14.2187 -14.2113
   -10.4880 -10.4659 -10.4584 -10.4542 -10.4465 -10.4450 -10.4271 -10.4244
    -9.6245  -9.5597  -9.5449  -9.4829  -9.4407  -9.4102  -9.3935  -9.3592
    -9.2495  -9.2266  -9.2168  -9.2027  -9.1947  -9.1825  -9.1596  -9.1538
    -9.1369  -9.1254  -9.1097  -9.0886  -9.0726  -9.0440  -9.0191  -8.9986
    -6.9811  -6.9517  -6.9508  -6.9452  -6.9400  -6.9360  -6.9235  -6.9195
    -6.9093  -6.8827  -6.8186  -6.8010  -6.7968  -6.7919  -6.7865  -6.7820
    -5.6666  -5.4976  -5.4807  -5.3181  -5.2376  -5.0812  -5.0672  -4.9260
    -4.8363  -4.8161  -4.8081  -4.7991  -4.7950  -4.7864  -4.7735  -4.7541
    -2.7999  -2.7735  -2.7691  -2.7597  -2.7557  -2.7516  -2.7454  -2.7397
    -2.7345  -2.7252  -2.7235  -2.7118  -2.7102  -2.7038  -2.7005  -2.6965
    -0.8073  -0.7437  -0.7343  -0.6728  -0.5226  -0.4466  -0.4204  -0.3885
    -0.3495  -0.3002  -0.2674  -0.2536   0.0390   0.0529   0.1142   0.1387
     0.1842   0.2235   0.2523   0.3012   0.3961   0.4052   0.4251   0.4397
     0.5142   0.5733   0.6285   0.6394   0.6753   0.7064   0.7343   0.7791
     0.8077   0.8596   0.8881   0.9288   0.9469   0.9756   0.9950   1.0105
     1.0265   1.0446   1.0561   1.0804   1.0876   1.1447   1.1619   1.1926
     1.2110   1.2483   1.2565   1.2677   1.2749   1.2890   1.3142   1.3527
     1.3649   1.3696   1.3858   1.4099   1.4565   1.4753   1.4878   1.5112
     1.5188   1.5299   1.5627   1.5690   1.5942   1.6705   1.7106   1.7683

          k =-0.3745-0.3798 0.1289 (299793 PWs)   bands (ev):

   -17.5202 -17.4917 -17.4551 -17.4307 -17.4302 -17.4290 -17.4242 -17.4188
   -14.2969 -14.2914 -14.2899 -14.2846 -14.2821 -14.2795 -14.2782 -14.2758
   -14.2740 -14.2723 -14.2710 -14.2658 -14.2651 -14.2620 -14.2583 -14.2572
   -14.2537 -14.2519 -14.2488 -14.2485 -14.2483 -14.2479 -14.2474 -14.2470
   -14.2449 -14.2399 -14.2393 -14.2390 -14.2387 -14.2382 -14.2370 -14.2352
   -14.2315 -14.2305 -14.2297 -14.2292 -14.2226 -14.2208 -14.2187 -14.2113
   -10.4879 -10.4664 -10.4568 -10.4525 -10.4479 -10.4449 -10.4282 -10.4253
    -9.6093  -9.5725  -9.5505  -9.4588  -9.4556  -9.4006  -9.3820  -9.3304
    -9.2924  -9.2798  -9.2525  -9.2415  -9.1892  -9.1490  -9.1417  -9.1248
    -9.1164  -9.1109  -9.0961  -9.0867  -9.0593  -9.0438  -9.0390  -9.0128
    -6.9752  -6.9593  -6.9514  -6.9443  -6.9410  -6.9344  -6.9246  -6.9180
    -6.9103  -6.8765  -6.8232  -6.8068  -6.8039  -6.7915  -6.7801  -6.7780
    -5.6704  -5.5069  -5.4789  -5.3217  -5.2415  -5.0696  -5.0425  -4.9479
    -4.8375  -4.8173  -4.8059  -4.8010  -4.7953  -4.7824  -4.7723  -4.7434
    -2.7933  -2.7784  -2.7675  -2.7593  -2.7524  -2.7505  -2.7442  -2.7428
    -2.7338  -2.7318  -2.7213  -2.7165  -2.7113  -2.7065  -2.6999  -2.6933
    -0.8392  -0.8004  -0.7619  -0.7120  -0.5005  -0.4720  -0.4480  -0.3401
    -0.3278  -0.3023  -0.2729  -0.2326   0.0629   0.1293   0.1441   0.2145
     0.2778   0.2960   0.3175   0.3233   0.3452   0.3729   0.3926   0.4387
[...]
    -6.9054  -6.8793  -6.8213  -6.8007  -6.7964  -6.7908  -6.7867  -6.7825
    -5.5498  -5.3882  -5.3732  -5.3659  -5.2178  -5.2078  -5.1995  -5.0355
    -4.8402  -4.8241  -4.8075  -4.8007  -4.7984  -4.7919  -4.7708  -4.7658
    -2.7944  -2.7788  -2.7744  -2.7557  -2.7508  -2.7490  -2.7460  -2.7421
    -2.7357  -2.7313  -2.7236  -2.7162  -2.7071  -2.7002  -2.6972  -2.6944
    -0.6207  -0.5437  -0.4840  -0.4542  -0.4239  -0.3724  -0.3452  -0.3287
    -0.2885  -0.2718  -0.2059  -0.1761  -0.0088   0.0185   0.0620   0.0814
     0.1197   0.2052   0.2115   0.2245   0.3041   0.3291   0.3402   0.3523
     0.5523   0.6133   0.6302   0.6679   0.6796   0.7062   0.7338   0.7444
     0.7686   0.8073   0.8350   0.8457   0.8828   0.8983   0.9017   0.9241
     0.9569   0.9705   0.9916   1.0019   1.0245   1.0412   1.0885   1.1177
     1.2350   1.2663   1.2787   1.2893   1.2985   1.3120   1.3310   1.3755
     1.3982   1.4161   1.4264   1.4346   1.4475   1.4611   1.4641   1.4745
     1.5001   1.5162   1.5263   1.5333   1.5431   1.5662   1.6424   1.6629

          k = 0.3745-0.3802-0.3865 (299817 PWs)   bands (ev):

   -17.5179 -17.4924 -17.4592 -17.4307 -17.4296 -17.4286 -17.4231 -17.4198
   -14.2923 -14.2866 -14.2834 -14.2823 -14.2790 -14.2777 -14.2731 -14.2713
   -14.2680 -14.2669 -14.2666 -14.2634 -14.2610 -14.2577 -14.2547 -14.2540
   -14.2500 -14.2468 -14.2453 -14.2448 -14.2448 -14.2447 -14.2440 -14.2419
   -14.2410 -14.2363 -14.2342 -14.2341 -14.2338 -14.2335 -14.2316 -14.2304
   -14.2277 -14.2261 -14.2250 -14.2243 -14.2188 -14.2160 -14.2138 -14.2062
   -10.4895 -10.4671 -10.4593 -10.4558 -10.4480 -10.4463 -10.4279 -10.4244
    -9.5966  -9.5322  -9.5091  -9.4913  -9.4606  -9.4522  -9.4439  -9.4013
    -9.2469  -9.2169  -9.1994  -9.1894  -9.1748  -9.1553  -9.1454  -9.1307
    -9.1263  -9.1029  -9.0956  -9.0887  -9.0778  -9.0610  -9.0379  -9.0142
    -6.9796  -6.9523  -6.9484  -6.9448  -6.9407  -6.9335  -6.9207  -6.9166
    -6.9062  -6.8791  -6.8213  -6.8009  -6.7962  -6.7908  -6.7868  -6.7824
    -5.5500  -5.3890  -5.3726  -5.3650  -5.2185  -5.2068  -5.2005  -5.0352
    -4.8403  -4.8241  -4.8076  -4.8007  -4.7985  -4.7915  -4.7711  -4.7657
    -2.7945  -2.7795  -2.7745  -2.7566  -2.7520  -2.7482  -2.7447  -2.7418
    -2.7354  -2.7313  -2.7238  -2.7154  -2.7066  -2.6997  -2.6977  -2.6952
    -0.6156  -0.5480  -0.4817  -0.4608  -0.4278  -0.3697  -0.3383  -0.3256
    -0.2923  -0.2783  -0.2040  -0.1778  -0.0007   0.0261   0.0587   0.0789
     0.1201   0.1999   0.2160   0.2235   0.3072   0.3268   0.3348   0.3520
     0.5533   0.6100   0.6330   0.6679   0.6812   0.7030   0.7331   0.7439
     0.7669   0.8027   0.8372   0.8499   0.8834   0.8976   0.9125   0.9221
     0.9529   0.9691   0.9893   1.0038   1.0260   1.0424   1.0871   1.1184
     1.2340   1.2668   1.2789   1.2884   1.2987   1.3086   1.3370   1.3730
     1.3984   1.4159   1.4269   1.4330   1.4486   1.4545   1.4605   1.4795
     1.5019   1.5186   1.5274   1.5343   1.5421   1.5668   1.6414   1.6629

     highest occupied level (ev):     2.0735

!    total energy              =  -16491.15694714 Ry
     Harris-Foulkes estimate   =  -16491.15694714 Ry
     estimated scf accuracy    <          3.8E-10 Ry

     total all-electron energy =   -677247.826212 Ry

     The total energy is the sum of the following terms:

     one-electron contribution =    -827.07088434 Ry
     hartree contribution      =     599.43968605 Ry
     xc contribution           =    -755.73434482 Ry
     ewald contribution        =   -1152.96172051 Ry
     DFT-D3 Dispersion         =      -0.62569956 Ry
     one-center paw contrib.   =  -14354.20398395 Ry

     convergence has been achieved in   8 iterations

     Forces acting on atoms (cartesian axes, Ry/au):

     atom    1 type  1   force =     0.00008976   -0.00001839    0.00003641
     atom    2 type  1   force =     0.00011226   -0.00008796   -0.00001358
     atom    3 type  1   force =     0.00012335    0.00000588   -0.00010805
     atom    4 type  1   force =     0.00011054    0.00018269    0.00011950
     atom    5 type  1   force =     0.00000666   -0.00002613   -0.00000025
     atom    6 type  1   force =    -0.00005538    0.00007194    0.00000723
     atom    7 type  1   force =    -0.00005555    0.00002624   -0.00009060
     atom    8 type  1   force =     0.00002224   -0.00006418    0.00001882
     atom    9 type  2   force =     0.00004253    0.00013459    0.00004489
     atom   10 type  2   force =    -0.00002817   -0.00001500    0.00012528
     atom   11 type  2   force =     0.00004733   -0.00023261   -0.00002919
     atom   12 type  2   force =    -0.00007307    0.00011814    0.00001947
     atom   13 type  2   force =    -0.00003631    0.00002337   -0.00001498
     atom   14 type  2   force =    -0.00009746    0.00018924    0.00002641
     atom   15 type  2   force =     0.00001642   -0.00001031    0.00003542
     atom   16 type  2   force =     0.00002540    0.00002251   -0.00000955
     atom   17 type  2   force =     0.00004352    0.00009159   -0.00005565
     atom   18 type  2   force =    -0.00011748   -0.00009012    0.00008473
     atom   19 type  2   force =     0.00002388    0.00003376   -0.00001078
     atom   20 type  2   force =     0.00003146   -0.00014725    0.00007850
     atom   21 type  2   force =    -0.00010975    0.00007595    0.00009495
     atom   22 type  2   force =     0.00014280    0.00002890   -0.00007809
     atom   23 type  2   force =    -0.00021116    0.00020104   -0.00000099
     atom   24 type  2   force =    -0.00006285    0.00004023   -0.00001644
     atom   25 type  2   force =    -0.00001424    0.00000758    0.00002121
     atom   26 type  2   force =     0.00020457   -0.00028079    0.00002639
     atom   27 type  2   force =    -0.00009410   -0.00004858    0.00003683
     atom   28 type  2   force =     0.00011319   -0.00005558    0.00016643
     atom   29 type  2   force =     0.00003414    0.00004250    0.00010888
     atom   30 type  2   force =     0.00011330   -0.00009116    0.00003200
     atom   31 type  2   force =    -0.00005825   -0.00000056    0.00010960
     atom   32 type  2   force =    -0.00029407    0.00018500   -0.00003553
     atom   33 type  3   force =    -0.00014466   -0.00030616   -0.00001787
     atom   34 type  3   force =     0.00000288   -0.00005055    0.00003799
     atom   35 type  3   force =    -0.00008043   -0.00006698   -0.00000468
     atom   36 type  3   force =     0.00023236   -0.00017735   -0.00000710
     atom   37 type  3   force =    -0.00012148   -0.00013316    0.00000627
     atom   38 type  3   force =    -0.00017750   -0.00026622   -0.00001203
     atom   39 type  3   force =    -0.00006783   -0.00009615    0.00006211
     atom   40 type  3   force =     0.00013211    0.00013939   -0.00017156
     atom   41 type  4   force =     0.00012450   -0.00006802   -0.00010908
     atom   42 type  4   force =     0.00014308    0.00015348   -0.00000630
     atom   43 type  4   force =    -0.00024754   -0.00012161   -0.00005752
     atom   44 type  4   force =    -0.00002406   -0.00018253   -0.00016163
     atom   45 type  4   force =     0.00004401    0.00000684   -0.00002956
     atom   46 type  4   force =     0.00013604    0.00002671   -0.00006202
     atom   47 type  4   force =     0.00015778   -0.00008585   -0.00012893
     atom   48 type  4   force =    -0.00003689   -0.00030230    0.00023056
     atom   49 type  5   force =     0.00020799    0.00004282   -0.00007485
     atom   50 type  5   force =     0.00005356    0.00004205   -0.00002019
     atom   51 type  5   force =     0.00001430   -0.00000487    0.00003788
     atom   52 type  5   force =    -0.00032023    0.00011415    0.00005484
     atom   53 type  5   force =    -0.00025510    0.00010401   -0.00003576
     atom   54 type  5   force =     0.00032266   -0.00016489    0.00007984
     atom   55 type  5   force =    -0.00000790    0.00002621    0.00004383
     atom   56 type  5   force =     0.00015376   -0.00013674   -0.00003721
     atom   57 type  5   force =     0.00001295    0.00007139   -0.00011610
     atom   58 type  5   force =    -0.00008119    0.00007067    0.00016164
     atom   59 type  5   force =    -0.00003347   -0.00005723    0.00004860
     atom   60 type  5   force =    -0.00013356    0.00000701   -0.00010291
     atom   61 type  5   force =     0.00018930   -0.00012609   -0.00031327
     atom   62 type  5   force =    -0.00025096    0.00019292   -0.00014249
     atom   63 type  5   force =     0.00027599   -0.00001374    0.00029147
     atom   64 type  5   force =    -0.00000599    0.00031266    0.00006498
     atom   65 type  5   force =    -0.00005191   -0.00013055    0.00009605
     atom   66 type  5   force =     0.00007570    0.00017682   -0.00007030
     atom   67 type  5   force =     0.00003058   -0.00022200   -0.00012192
     atom   68 type  5   force =    -0.00015324    0.00020704    0.00006497
     atom   69 type  5   force =     0.00016135   -0.00011520    0.00009435
     atom   70 type  5   force =    -0.00013565    0.00016125    0.00007671
     atom   71 type  5   force =     0.00011834   -0.00003468   -0.00004746
     atom   72 type  5   force =    -0.00012678    0.00004864    0.00000303
     atom   73 type  5   force =     0.00009370    0.00000447   -0.00006292
     atom   74 type  5   force =     0.00005924   -0.00002392   -0.00000086
     atom   75 type  5   force =     0.00013627   -0.00000265   -0.00005603
     atom   76 type  5   force =     0.00004952    0.00005740    0.00022099
     atom   77 type  5   force =    -0.00008123   -0.00004565   -0.00000630
     atom   78 type  5   force =    -0.00003677    0.00004342   -0.00029026
     atom   79 type  5   force =     0.00008235   -0.00005290    0.00007171
     atom   80 type  5   force =     0.00017769    0.00008926   -0.00005970
     atom   81 type  5   force =    -0.00000160    0.00004801   -0.00006027
     atom   82 type  5   force =    -0.00021005    0.00016670    0.00009364
     atom   83 type  5   force =    -0.00035864    0.00009602   -0.00007416
     atom   84 type  5   force =     0.00024880   -0.00021315    0.00007893
     atom   85 type  5   force =     0.00000179   -0.00013002   -0.00009209
     atom   86 type  5   force =     0.00000796    0.00013368   -0.00003881
     atom   87 type  5   force =     0.00000290    0.00001384   -0.00002310
     atom   88 type  5   force =    -0.00007380    0.00008770   -0.00013871
     atom   89 type  5   force =    -0.00023338   -0.00003075    0.00005070
     atom   90 type  5   force =     0.00013089   -0.00006764    0.00012266
     atom   91 type  5   force =     0.00017738   -0.00025845   -0.00039843
     atom   92 type  5   force =    -0.00030932    0.00036236    0.00000262
     atom   93 type  5   force =     0.00007507   -0.00011109    0.00020487
     atom   94 type  5   force =    -0.00003859    0.00039755   -0.00001017
     atom   95 type  5   force =     0.00031725   -0.00028415   -0.00009011
     atom   96 type  5   force =    -0.00034582    0.00036626    0.00022220

     Total force =     0.002261     Total SCF correction =     0.000052


     Computing stress (Cartesian axis) and pressure

          total   stress  (Ry/bohr**3)                   (kbar)     P=    0.02
   0.00000004   0.00000620   0.00000145          0.01      0.91      0.21
   0.00000620   0.00000074  -0.00000061          0.91      0.11     -0.09
   0.00000145  -0.00000061  -0.00000047          0.21     -0.09     -0.07


     number of scf cycles    =  21
     number of bfgs steps    =  20

     enthalpy old            =  -16491.1569383812 Ry
     enthalpy new            =  -16491.1569471404 Ry

     CASE: enthalpy_new < enthalpy_old

     new trust radius        =       0.0097270807 bohr
     new conv_thr            =       0.0000000010 Ry

     new unit-cell volume =  13505.75953 a.u.^3 (  2001.34705 Ang^3 )
     density =      4.12023 g/cm^3

CELL_PARAMETERS (alat= 24.15259000)
   1.001524032   0.000000000   0.000000000
   0.000000000   0.986408217   0.000000000
   0.000000000   0.000000000   0.970308485

ATOMIC_POSITIONS (crystal)
Pb       0.001797230   0.002065978  -0.000718786
Pb       0.000159476   0.003177813   0.500124003
Pb       0.003528357   0.504353050  -0.000247499
Pb       0.001094458   0.505049578   0.502113965
Pb       0.501925297   0.001853694   0.001380641
Pb       0.500985642   0.002672982   0.501232103
Pb       0.506127412   0.503169488   0.003367355
Pb       0.504832776   0.503734807   0.502473086
I        0.252569918   0.015362214  -0.034001786
I        0.029123814   0.253002499   0.041329565
I        0.041564003  -0.046076197   0.249411123
I        0.251517779   0.024442393   0.532260849
I        0.021776107   0.255149986   0.457082311
I       -0.041786191   0.051781073   0.749702311
I        0.255202161   0.533561960   0.028045141
I        0.013582173   0.752835684  -0.052391571
I       -0.033379206   0.548985248   0.250608610
I        0.253608818   0.531516825   0.478367207
I        0.017570762   0.755193328   0.544926921
I        0.034491175   0.447416236   0.750728063
I        0.752504914   0.027904681   0.033119958
I        0.514932859   0.252226818  -0.040634862
I        0.460705042   0.051028375   0.251024679
I        0.751355390   0.024761348   0.466258261
I        0.519552919   0.252788793   0.544066286
I        0.534425262  -0.048879013   0.751114871
I        0.755212742   0.517719415  -0.031279675
I        0.530733585   0.752479646   0.045683025
I        0.540083082   0.453127560   0.252835340
I        0.753643219   0.523638663   0.534612494
I        0.525112803   0.753012831   0.457073528
I        0.471924754   0.544898445   0.753008108
C        0.278799932   0.293044921   0.252169712
C        0.284850935   0.290053364   0.750534140
C        0.290455443   0.791406297   0.250199187
C        0.270608664   0.776997188   0.741579051
C        0.788811873   0.290872779   0.247956071
C        0.774691565   0.287321057   0.749289338
C        0.787051703   0.787978628   0.250156769
C        0.783684082   0.796287794   0.746488527
N        0.214109324   0.194586735   0.252720064
N        0.200280306   0.208543825   0.752660774
N        0.201581063   0.714740389   0.253791440
N        0.215725102   0.672864372   0.751070115
N        0.700309939   0.213807063   0.250905279
N        0.707767387   0.190466383   0.753122702
N        0.719018924   0.691894525   0.253780741
N        0.701771971   0.712356289   0.753911478
H        0.165474466   0.191964739   0.185379898
H        0.165514303   0.192542929   0.320067425
H        0.261469033   0.127811312   0.253090835
H        0.328379550   0.292708075   0.180317435
H        0.327490003   0.294082182   0.324647510
H        0.226703652   0.361834502   0.251123239
H        0.204165013   0.159351578   0.685137050
H        0.127315448   0.244124344   0.754171082
H        0.206794766   0.159365250   0.819950417
H        0.275180215   0.339032621   0.678383818
H        0.360515346   0.249899923   0.748675944
H        0.278583630   0.339211007   0.822943411
H        0.202444602   0.664767061   0.186936639
H        0.130813041   0.754873159   0.254937257
H        0.205421821   0.666638549   0.321973045
H        0.283129091   0.839588778   0.177220530
H        0.363992065   0.747284717   0.249084175
H        0.286517306   0.842206563   0.321592582
H        0.217879570   0.631169791   0.678938308
H        0.138186106   0.683466061   0.772603792
H        0.249384502   0.625440071   0.809822170
H        0.233240032   0.823001598   0.677470742
H        0.352627741   0.762244582   0.722039996
H        0.264266616   0.818959223   0.818552367
H        0.701712774   0.164055470   0.183762151
H        0.629281806   0.253357259   0.252348265
H        0.704686863   0.164908265   0.318601020
H        0.781043248   0.340142179   0.175746599
H        0.862440066   0.246949674   0.245743983
H        0.785395434   0.340447047   0.320274854
H        0.658489588   0.187433478   0.686403451
H        0.659937093   0.190957155   0.821043237
H        0.753552454   0.122668844   0.754497088
H        0.822722045   0.284331970   0.676407201
H        0.824801626   0.288582989   0.820693106
H        0.724248215   0.357331540   0.747903660
H        0.669299740   0.689884955   0.187301744
H        0.671459217   0.692558601   0.321943006
H        0.764042755   0.623578910   0.254455304
H        0.835041805   0.784560129   0.177262598
H        0.837199147   0.788495053   0.321563074
H        0.737488934   0.858625846   0.248857227
H        0.704641412   0.661634628   0.687647834
H        0.627908367   0.745771820   0.756974600
H        0.711491883   0.665076464   0.822074131
H        0.770023689   0.842807860   0.673378811
H        0.860405822   0.758455775   0.743070813
H        0.778287362   0.847223660   0.817658552



     Writing output data file MAPbI_vcrelax_PAW11.save/
     NEW-OLD atomic charge density approx. for the potential
     extrapolated charge  400.04601, renormalised to  400.00000

     total cpu time spent up to now is   585404.4 secs

     Self-consistent Calculation

     iteration #  1     ecut=   120.00 Ry     beta= 0.70
     Davidson diagonalization with overlap
     ethr =  1.00E-06,  avg # of iterations =  3.0

     Threshold (ethr) on eigenvalues was too large:
     Diagonalizing with lowered threshold

     Davidson diagonalization with overlap
     ethr =  2.49E-08,  avg # of iterations =  3.0

     total cpu time spent up to now is   590454.0 secs

     total energy              =  -16491.15692264 Ry
     Harris-Foulkes estimate   =  -16491.08694934 Ry
     estimated scf accuracy    <       0.00010025 Ry

     iteration #  2     ecut=   120.00 Ry     beta= 0.70
     Davidson diagonalization with overlap
     ethr =  2.51E-08,  avg # of iterations =  3.0

     total cpu time spent up to now is   593095.5 secs

     total energy              =  -16491.15694651 Ry
     Harris-Foulkes estimate   =  -16491.15696080 Ry
     estimated scf accuracy    <       0.00003328 Ry

     iteration #  3     ecut=   120.00 Ry     beta= 0.70
     Davidson diagonalization with overlap
     ethr =  8.32E-09,  avg # of iterations =  2.0

     total cpu time spent up to now is   595544.0 secs

     total energy              =  -16491.15695533 Ry
     Harris-Foulkes estimate   =  -16491.15695486 Ry
     estimated scf accuracy    <       0.00000459 Ry

     iteration #  4     ecut=   120.00 Ry     beta= 0.70
     Davidson diagonalization with overlap
     ethr =  1.15E-09,  avg # of iterations =  2.0

     total cpu time spent up to now is   597938.2 secs

     total energy              =  -16491.15695636 Ry
     Harris-Foulkes estimate   =  -16491.15695618 Ry
     estimated scf accuracy    <       0.00000157 Ry

     iteration #  5     ecut=   120.00 Ry     beta= 0.70
     Davidson diagonalization with overlap
     ethr =  3.92E-10,  avg # of iterations =  2.0

     total cpu time spent up to now is   600258.8 secs

     total energy              =  -16491.15695650 Ry
     Harris-Foulkes estimate   =  -16491.15695662 Ry
     estimated scf accuracy    <       0.00000052 Ry

     iteration #  6     ecut=   120.00 Ry     beta= 0.70
     Davidson diagonalization with overlap
     ethr =  1.30E-10,  avg # of iterations =  3.0

     total cpu time spent up to now is   602581.1 secs

     total energy              =  -16491.15695657 Ry
     Harris-Foulkes estimate   =  -16491.15695664 Ry
     estimated scf accuracy    <       0.00000017 Ry

     iteration #  7     ecut=   120.00 Ry     beta= 0.70
     Davidson diagonalization with overlap
     ethr =  4.27E-11,  avg # of iterations =  2.8

     total cpu time spent up to now is   604744.2 secs

     total energy              =  -16491.15695660 Ry
     Harris-Foulkes estimate   =  -16491.15695660 Ry
     estimated scf accuracy    <          3.6E-09 Ry

     iteration #  8     ecut=   120.00 Ry     beta= 0.70
     Davidson diagonalization with overlap
