
     Program PWSCF v.6.4 starts on 24Apr2020 at 19:35: 1 

     This program is part of the open-source Quantum ESPRESSO suite
     for quantum simulation of materials; please cite
         "P. Giannozzi et al., J. Phys.:Condens. Matter 21 395502 (2009);
         "P. Giannozzi et al., J. Phys.:Condens. Matter 29 465901 (2017);
          URL http://www.quantum-espresso.org", 
     in publications or presentations arising from this work. More details at
     http://www.quantum-espresso.org/quote

     Parallel version (MPI), running on    32 processors

     MPI processes distributed on     1 nodes
     K-points division:     npool     =       4
     R & G space division:  proc/nbgrp/npool/nimage =       8
     Waiting for input...
     Reading input from standard input
     Message from routine read_cards :
     DEPRECATED: no units specified in CELL_PARAMETERS card

     Current dimensions of program PWSCF are:
     Max number of different atomic species (ntypx) = 10
     Max number of k-points (npk) =  40000
     Max angular momentum in pseudopotentials (lmaxx) =  3
               file Pb.pbe-dn-kjpaw_psl.1.0.0.UPF: wavefunction(s)  6S 6P 5D renormalized
               file I.pbe-n-kjpaw_psl.1.0.0.UPF: wavefunction(s)  5S renormalized
               file C.pbe-n-kjpaw_psl.1.0.0.UPF: wavefunction(s)  2S 2P renormalized
               file N.pbe-n-kjpaw_psl.1.0.0.UPF: wavefunction(s)  2S renormalized
               file H.pbe-kjpaw_psl.1.0.0.UPF: wavefunction(s)  1S renormalized

     --------------------------------------------
     Parameters for DFT-D3 Dispersion Correction:
     --------------------------------------------
       Reference C6 values for interpolation: 

         atom   Coordination number   C6
         H          0.912             6.05
         H          0.000            15.18
         C          0.000            98.23
         C          0.987            86.49
         C          1.998            58.72
         C          2.999            51.56
         C          3.984            36.41
         N          0.000            50.54
         N          0.994            44.25
         N          2.014            39.35
         N          2.990            31.16
         I          0.000           703.93
         I          0.997           717.00
         Pb         0.000          1477.63
         Pb         0.938          1266.00
         Pb         1.936          1088.91
         Pb         2.908          1048.37
         Pb         3.910           910.57

       Values used:

         atom   Coordination number  R0_AB[au]  C6      C8
         Pb         4.800            4.041    910.57 144158.41
         Pb         4.807            4.041    910.57 144158.40
         Pb         4.824            4.041    910.57 144158.36
         Pb         4.838            4.041    910.57 144158.34
         Pb         4.825            4.041    910.57 144158.36
         Pb         4.824            4.041    910.57 144158.36
         Pb         4.855            4.041    910.57 144158.31
         Pb         4.854            4.041    910.57 144158.31
         I          1.933            3.532    717.00  65855.99
         I          1.961            3.532    717.00  65856.00
         I          1.950            3.532    717.00  65856.00
         I          1.930            3.532    717.00  65855.99
         I          1.963            3.532    717.00  65856.00
         I          1.978            3.532    717.00  65856.00
         I          1.884            3.532    717.00  65855.99
         I          1.943            3.532    717.00  65855.99
         I          1.972            3.532    717.00  65856.00
         I          1.906            3.532    717.00  65855.99
         I          1.957            3.532    717.00  65856.00
         I          1.992            3.532    717.00  65856.00
         I          1.918            3.532    717.00  65855.99
         I          1.984            3.532    717.00  65856.00
         I          1.979            3.532    717.00  65856.00
         I          1.931            3.532    717.00  65855.99
         I          1.988            3.532    717.00  65856.00
         I          1.963            3.532    717.00  65856.00
         I          1.966            3.532    717.00  65856.00
         I          1.993            3.532    717.00  65856.00
         I          1.979            3.532    717.00  65856.00
         I          1.976            3.532    717.00  65856.00
         I          1.992            3.532    717.00  65856.00
         I          2.011            3.532    717.00  65856.00
         C          4.039            2.750     36.59   1058.24
         C          4.041            2.750     36.59   1058.13
         C          4.041            2.750     36.59   1058.14
         C          4.037            2.750     36.59   1058.32
         C          4.041            2.750     36.59   1058.15
         C          4.045            2.750     36.58   1058.00
         C          4.043            2.750     36.58   1058.07
         C          4.047            2.750     36.58   1057.93
         N          4.066            2.478     31.16    687.49
         N          4.061            2.478     31.16    687.49
         N          4.059            2.478     31.16    687.49
         N          4.068            2.478     31.16    687.49
         N          4.062            2.478     31.16    687.49
         N          4.065            2.478     31.16    687.49
         N          4.065            2.478     31.16    687.49
         N          4.061            2.478     31.16    687.49
         H          1.077            2.062      6.13     74.06
         H          1.074            2.062      6.13     74.08
         H          1.051            2.062      6.14     74.24
         H          1.008            2.062      6.17     74.64
         H          1.007            2.062      6.17     74.64
         H          1.007            2.062      6.18     74.65
         H          1.077            2.062      6.13     74.06
         H          1.039            2.062      6.15     74.34
         H          1.072            2.062      6.13     74.09
         H          1.008            2.062      6.17     74.63
         H          1.012            2.062      6.17     74.59
         H          1.008            2.062      6.17     74.64
         H          1.065            2.062      6.13     74.14
         H          1.047            2.062      6.14     74.28
         H          1.063            2.062      6.13     74.15
         H          1.008            2.062      6.17     74.63
         H          1.010            2.062      6.17     74.61
         H          1.008            2.062      6.17     74.63
         H          1.040            2.062      6.15     74.34
         H          1.041            2.062      6.15     74.33
         H          1.032            2.062      6.15     74.40
         H          1.013            2.062      6.17     74.58
         H          1.013            2.062      6.17     74.58
         H          1.012            2.062      6.17     74.59
         H          1.076            2.062      6.13     74.07
         H          1.045            2.062      6.15     74.29
         H          1.077            2.062      6.13     74.06
         H          1.008            2.062      6.17     74.63
         H          1.010            2.062      6.17     74.61
         H          1.008            2.062      6.17     74.63
         H          1.071            2.062      6.13     74.10
         H          1.070            2.062      6.13     74.11
         H          1.045            2.062      6.15     74.29
         H          1.008            2.062      6.17     74.63
         H          1.009            2.062      6.17     74.63
         H          1.009            2.062      6.17     74.63
         H          1.077            2.062      6.13     74.06
         H          1.073            2.062      6.13     74.09
         H          1.046            2.062      6.15     74.29
         H          1.008            2.062      6.17     74.63
         H          1.008            2.062      6.17     74.63
         H          1.008            2.062      6.17     74.63
         H          1.068            2.062      6.13     74.12
         H          1.037            2.062      6.15     74.36
         H          1.063            2.062      6.13     74.15
         H          1.009            2.062      6.17     74.62
         H          1.015            2.062      6.17     74.57
         H          1.009            2.062      6.17     74.62

         Molecular C6 ( Ry / a.u.^6 ) =   1196386.18


     Subspace diagonalization in iterative solution of the eigenvalue problem:
     a serial algorithm will be used


     Parallelization info
     --------------------
     sticks:   dense  smooth     PW     G-vecs:    dense   smooth      PW
     Min        2753    2753    710               299690   299690   39242
     Max        2755    2755    711               299691   299691   39245
     Sum       22035   22035   5681              2397525  2397525  313947



     bravais-lattice index     =            0
     lattice parameter (alat)  =      24.1526  a.u.
     unit-cell volume          =   13500.4755 (a.u.)^3
     number of atoms/cell      =           96
     number of atomic types    =            5
     number of electrons       =       400.00
     number of Kohn-Sham states=          200
     kinetic-energy cutoff     =     120.0000  Ry
     charge density cutoff     =     480.0000  Ry
     convergence threshold     =      1.0E-07
     mixing beta               =       0.7000
     number of iterations used =            8  plain     mixing
     Exchange-correlation      = SLA PW PBX PBC ( 1  4  3  4 0 0)
     nstep                     =          150


     celldm(1)=  24.152590  celldm(2)=   0.000000  celldm(3)=   0.000000
     celldm(4)=   0.000000  celldm(5)=   0.000000  celldm(6)=   0.000000

     crystal axes: (cart. coord. in units of alat)
               a(1) = (   1.002065   0.000000   0.000000 )  
               a(2) = (   0.000000   0.986294   0.000000 )  
               a(3) = (   0.000000   0.000000   0.969518 )  

     reciprocal axes: (cart. coord. in units 2 pi/alat)
               b(1) = (  0.997940  0.000000  0.000000 )  
               b(2) = (  0.000000  1.013897  0.000000 )  
               b(3) = (  0.000000  0.000000  1.031440 )  


     PseudoPot. # 1 for Pb read from file:
     ../Pseudopotential/Pb.pbe-dn-kjpaw_psl.1.0.0.UPF
     MD5 check sum: 684fc8fbce61a260853528575e4d9ab7
     Pseudo is Projector augmented-wave + core cor, Zval = 14.0
     Generated using "atomic" code by A. Dal Corso v.6.3
     Shape of augmentation charge: PSQ
     Using radial grid of 1281 points,  6 beta functions with: 
                l(1) =   0
                l(2) =   0
                l(3) =   1
                l(4) =   1
                l(5) =   2
                l(6) =   2
     Q(r) pseudized with 0 coefficients 


     PseudoPot. # 2 for I  read from file:
     ../Pseudopotential/I.pbe-n-kjpaw_psl.1.0.0.UPF
     MD5 check sum: cd3d296c3308a581e1559a0c8a554cb5
     Pseudo is Projector augmented-wave + core cor, Zval =  7.0
     Generated using "atomic" code by A. Dal Corso v.6.3
     Shape of augmentation charge: PSQ
     Using radial grid of 1247 points,  6 beta functions with: 
                l(1) =   0
                l(2) =   0
                l(3) =   1
                l(4) =   1
                l(5) =   2
                l(6) =   2
     Q(r) pseudized with 0 coefficients 


     PseudoPot. # 3 for C  read from file:
     ../Pseudopotential/C.pbe-n-kjpaw_psl.1.0.0.UPF
     MD5 check sum: 5f16ad9a65e90284d1d834d4ab3b0f7d
     Pseudo is Projector augmented-wave + core cor, Zval =  4.0
     Generated using "atomic" code by A. Dal Corso v.6.3
     Shape of augmentation charge: PSQ
     Using radial grid of 1073 points,  4 beta functions with: 
                l(1) =   0
                l(2) =   0
                l(3) =   1
                l(4) =   1
     Q(r) pseudized with 0 coefficients 


     PseudoPot. # 4 for N  read from file:
     ../Pseudopotential/N.pbe-n-kjpaw_psl.1.0.0.UPF
     MD5 check sum: 14c48229446f9f2d411169a3abcbc3fa
     Pseudo is Projector augmented-wave + core cor, Zval =  5.0
     Generated using "atomic" code by A. Dal Corso v.6.3
     Shape of augmentation charge: PSQ
     Using radial grid of 1085 points,  4 beta functions with: 
                l(1) =   0
                l(2) =   0
                l(3) =   1
                l(4) =   1
     Q(r) pseudized with 0 coefficients 


     PseudoPot. # 5 for H  read from file:
     ../Pseudopotential/H.pbe-kjpaw_psl.1.0.0.UPF
     MD5 check sum: d81a744832360e4a8af0b0b5b123bc2a
     Pseudo is Projector augmented-wave, Zval =  1.0
     Generated using "atomic" code by A. Dal Corso v.6.3MaX
     Shape of augmentation charge: PSQ
     Using radial grid of  929 points,  2 beta functions with: 
                l(1) =   0
                l(2) =   0
     Q(r) pseudized with 0 coefficients 


     atomic species   valence    mass     pseudopotential
        Pb            14.00   207.97600     Pb( 1.00)
        I              7.00   126.90400     I ( 1.00)
        C              4.00    12.00000     C ( 1.00)
        N              5.00    14.00300     N ( 1.00)
        H              1.00     1.00700     H ( 1.00)

     No symmetry found



   Cartesian axes

     site n.     atom                  positions (alat units)
         1           Pb  tau(   1) = (   0.0023324   0.0021808  -0.0007206  )
         2           Pb  tau(   2) = (   0.0001776   0.0035506   0.4848859  )
         3           Pb  tau(   3) = (   0.0037845   0.4975671  -0.0001790  )
         4           Pb  tau(   4) = (   0.0014644   0.4985689   0.4870311  )
         5           Pb  tau(   5) = (   0.5035000   0.0019081   0.0014991  )
         6           Pb  tau(   6) = (   0.5020011   0.0026654   0.4861034  )
         7           Pb  tau(   7) = (   0.5074383   0.4963653   0.0032387  )
         8           Pb  tau(   8) = (   0.5062051   0.4967716   0.4874055  )
         9           I   tau(   9) = (   0.2534322   0.0160309  -0.0327751  )
        10           I   tau(  10) = (   0.0282588   0.2495586   0.0410628  )
        11           I   tau(  11) = (   0.0414038  -0.0463596   0.2417556  )
        12           I   tau(  12) = (   0.2519170   0.0243862   0.5160739  )
        13           I   tau(  13) = (   0.0213528   0.2518450   0.4423168  )
        14           I   tau(  14) = (  -0.0419192   0.0521503   0.7268247  )
        15           I   tau(  15) = (   0.2558610   0.5256773   0.0276396  )
        16           I   tau(  16) = (   0.0140511   0.7425709  -0.0512695  )
        17           I   tau(  17) = (  -0.0332998   0.5423021   0.2430769  )
        18           I   tau(  18) = (   0.2542440   0.5237902   0.4636964  )
        19           I   tau(  19) = (   0.0177610   0.7451074   0.5289234  )
        20           I   tau(  20) = (   0.0346226   0.4404031   0.7279959  )
        21           I   tau(  21) = (   0.7543709   0.0269947   0.0323967  )
        22           I   tau(  22) = (   0.5168677   0.2488172  -0.0397804  )
        23           I   tau(  23) = (   0.4615489   0.0511934   0.2435233  )
        24           I   tau(  24) = (   0.7527828   0.0244424   0.4519574  )
        25           I   tau(  25) = (   0.5201372   0.2492555   0.5282950  )
        26           I   tau(  26) = (   0.5356919  -0.0491340   0.7283729  )
        27           I   tau(  27) = (   0.7568561   0.5108271  -0.0304157  )
        28           I   tau(  28) = (   0.5315906   0.7421649   0.0450193  )
        29           I   tau(  29) = (   0.5414936   0.4466442   0.2452780  )
        30           I   tau(  30) = (   0.7554655   0.5159431   0.5188028  )
        31           I   tau(  31) = (   0.5263080   0.7425800   0.4430592  )
        32           I   tau(  32) = (   0.4724499   0.5385039   0.7301742  )
        33           C   tau(  33) = (   0.2788818   0.2888134   0.2446897  )
        34           C   tau(  34) = (   0.2853546   0.2865543   0.7280756  )
        35           C   tau(  35) = (   0.2908560   0.7809818   0.2426872  )
        36           C   tau(  36) = (   0.2710188   0.7659665   0.7188706  )
        37           C   tau(  37) = (   0.7903918   0.2870675   0.2401899  )
        38           C   tau(  38) = (   0.7756114   0.2834206   0.7265216  )
        39           C   tau(  39) = (   0.7883515   0.7769158   0.2427327  )
        40           C   tau(  40) = (   0.7852666   0.7859170   0.7240207  )
        41           N   tau(  41) = (   0.2145524   0.1914404   0.2448204  )
        42           N   tau(  42) = (   0.2009726   0.2058363   0.7295656  )
        43           N   tau(  43) = (   0.2021409   0.7050344   0.2457472  )
        44           N   tau(  44) = (   0.2160575   0.6632396   0.7279606  )
        45           N   tau(  45) = (   0.7019614   0.2108324   0.2429373  )
        46           N   tau(  46) = (   0.7094420   0.1873350   0.7298478  )
        47           N   tau(  47) = (   0.7206187   0.6818744   0.2458049  )
        48           N   tau(  48) = (   0.7035888   0.7026995   0.7305900  )
        49           H   tau(  49) = (   0.1664133   0.1886844   0.1790748  )
        50           H   tau(  50) = (   0.1654266   0.1894498   0.3098207  )
        51           H   tau(  51) = (   0.2623541   0.1258154   0.2456224  )
        52           H   tau(  52) = (   0.3283312   0.2891307   0.1748550  )
        53           H   tau(  53) = (   0.3277315   0.2896949   0.3149397  )
        54           H   tau(  54) = (   0.2264627   0.3564637   0.2441779  )
        55           H   tau(  55) = (   0.2052626   0.1574749   0.6639473  )
        56           H   tau(  56) = (   0.1277398   0.2406237   0.7308502  )
        57           H   tau(  57) = (   0.2074479   0.1571916   0.7947584  )
        58           H   tau(  58) = (   0.2757179   0.3350295   0.6581713  )
        59           H   tau(  59) = (   0.3612891   0.2472238   0.7264799  )
        60           H   tau(  60) = (   0.2785561   0.3348099   0.7984491  )
        61           H   tau(  61) = (   0.2037744   0.6555408   0.1809986  )
        62           H   tau(  62) = (   0.1311362   0.7444723   0.2461972  )
        63           H   tau(  63) = (   0.2058489   0.6578671   0.3121111  )
        64           H   tau(  64) = (   0.2834689   0.8287591   0.1720565  )
        65           H   tau(  65) = (   0.3646429   0.7377144   0.2416799  )
        66           H   tau(  66) = (   0.2866709   0.8308709   0.3120935  )
        67           H   tau(  67) = (   0.2182256   0.6221745   0.6579101  )
        68           H   tau(  68) = (   0.1384094   0.6738186   0.7488870  )
        69           H   tau(  69) = (   0.2498730   0.6164329   0.7848771  )
        70           H   tau(  70) = (   0.2332500   0.8116025   0.6570746  )
        71           H   tau(  71) = (   0.3530712   0.7514347   0.6994878  )
        72           H   tau(  72) = (   0.2649948   0.8071153   0.7937203  )
        73           H   tau(  73) = (   0.7034855   0.1619138   0.1776615  )
        74           H   tau(  74) = (   0.6307240   0.2496663   0.2445060  )
        75           H   tau(  75) = (   0.7065740   0.1624360   0.3084990  )
        76           H   tau(  76) = (   0.7826921   0.3356019   0.1700838  )
        77           H   tau(  77) = (   0.8642500   0.2439529   0.2382611  )
        78           H   tau(  78) = (   0.7867103   0.3360918   0.3102473  )
        79           H   tau(  79) = (   0.6600899   0.1842885   0.6651202  )
        80           H   tau(  80) = (   0.6616245   0.1873326   0.7958017  )
        81           H   tau(  81) = (   0.7559574   0.1208793   0.7308785  )
        82           H   tau(  82) = (   0.8238202   0.2811572   0.6558720  )
        83           H   tau(  83) = (   0.8256390   0.2849167   0.7958928  )
        84           H   tau(  84) = (   0.7245266   0.3520470   0.7253773  )
        85           H   tau(  85) = (   0.6712769   0.6796821   0.1809623  )
        86           H   tau(  86) = (   0.6725548   0.6824947   0.3116087  )
        87           H   tau(  87) = (   0.7660683   0.6147098   0.2467969  )
        88           H   tau(  88) = (   0.8362869   0.7741519   0.1719026  )
        89           H   tau(  89) = (   0.8386555   0.7771765   0.3119581  )
        90           H   tau(  90) = (   0.7384206   0.8463994   0.2420712  )
        91           H   tau(  91) = (   0.7071698   0.6527146   0.6662687  )
        92           H   tau(  92) = (   0.6294630   0.7354048   0.7331641  )
        93           H   tau(  93) = (   0.7131311   0.6560318   0.7967686  )
        94           H   tau(  94) = (   0.7716148   0.8321156   0.6532554  )
        95           H   tau(  95) = (   0.8622756   0.7489187   0.7207522  )
        96           H   tau(  96) = (   0.7792191   0.8359134   0.7932147  )

     number of k points=    32
                       cart. coord. in units 2pi/alat
        k(    1) = (   0.1247425   0.1267371   0.1289301), wk =   0.0625000
        k(    2) = (   0.1247425   0.1267371   0.3867902), wk =   0.0625000
        k(    3) = (   0.1247425   0.3802112   0.1289301), wk =   0.0625000
        k(    4) = (   0.1247425   0.3802112   0.3867902), wk =   0.0625000
        k(    5) = (   0.3742274   0.1267371   0.1289301), wk =   0.0625000
        k(    6) = (   0.3742274   0.1267371   0.3867902), wk =   0.0625000
        k(    7) = (   0.3742274   0.3802112   0.1289301), wk =   0.0625000
        k(    8) = (   0.3742274   0.3802112   0.3867902), wk =   0.0625000
        k(    9) = (  -0.1247425  -0.1267371   0.1289301), wk =   0.0625000
        k(   10) = (  -0.1247425   0.1267371  -0.1289301), wk =   0.0625000
        k(   11) = (   0.1247425  -0.1267371  -0.1289301), wk =   0.0625000
        k(   12) = (  -0.1247425  -0.1267371   0.3867902), wk =   0.0625000
        k(   13) = (  -0.1247425   0.1267371  -0.3867902), wk =   0.0625000
        k(   14) = (   0.1247425  -0.1267371  -0.3867902), wk =   0.0625000
        k(   15) = (  -0.1247425  -0.3802112   0.1289301), wk =   0.0625000
        k(   16) = (  -0.1247425   0.3802112  -0.1289301), wk =   0.0625000
        k(   17) = (   0.1247425  -0.3802112  -0.1289301), wk =   0.0625000
        k(   18) = (  -0.1247425  -0.3802112   0.3867902), wk =   0.0625000
        k(   19) = (  -0.1247425   0.3802112  -0.3867902), wk =   0.0625000
        k(   20) = (   0.1247425  -0.3802112  -0.3867902), wk =   0.0625000
        k(   21) = (  -0.3742274  -0.1267371   0.1289301), wk =   0.0625000
        k(   22) = (  -0.3742274   0.1267371  -0.1289301), wk =   0.0625000
        k(   23) = (   0.3742274  -0.1267371  -0.1289301), wk =   0.0625000
        k(   24) = (  -0.3742274  -0.1267371   0.3867902), wk =   0.0625000
        k(   25) = (  -0.3742274   0.1267371  -0.3867902), wk =   0.0625000
        k(   26) = (   0.3742274  -0.1267371  -0.3867902), wk =   0.0625000
        k(   27) = (  -0.3742274  -0.3802112   0.1289301), wk =   0.0625000
        k(   28) = (  -0.3742274   0.3802112  -0.1289301), wk =   0.0625000
        k(   29) = (   0.3742274  -0.3802112  -0.1289301), wk =   0.0625000
        k(   30) = (  -0.3742274  -0.3802112   0.3867902), wk =   0.0625000
        k(   31) = (  -0.3742274   0.3802112  -0.3867902), wk =   0.0625000
        k(   32) = (   0.3742274  -0.3802112  -0.3867902), wk =   0.0625000

     Dense  grid:  2397525 G-vectors     FFT dimensions: ( 180, 180, 180)

     Estimated max dynamical RAM per process >       3.10 GB

     Estimated total dynamical RAM >      99.05 GB

     Initial potential from superposition of free atoms

     starting charge  399.97850, renormalised to  400.00000
     Starting wfcs are  280 randomized atomic wfcs
     Checking if some PAW data can be deallocated... 

     total cpu time spent up to now is     1024.4 secs

     Self-consistent Calculation

     iteration #  1     ecut=   120.00 Ry     beta= 0.70
     Davidson diagonalization with overlap
     ethr =  1.00E-02,  avg # of iterations =  2.0

     total cpu time spent up to now is     2898.9 secs

     total energy              =  -16489.36544176 Ry
     Harris-Foulkes estimate   =  -16492.77248009 Ry
     estimated scf accuracy    <       5.71355793 Ry

     iteration #  2     ecut=   120.00 Ry     beta= 0.70
     Davidson diagonalization with overlap
     ethr =  1.43E-03,  avg # of iterations =  3.0

     total cpu time spent up to now is     5431.9 secs

     total energy              =  -16490.60773435 Ry
     Harris-Foulkes estimate   =  -16491.84612565 Ry
     estimated scf accuracy    <       2.20172071 Ry

     iteration #  3     ecut=   120.00 Ry     beta= 0.70
     Davidson diagonalization with overlap
     ethr =  5.50E-04,  avg # of iterations =  3.0

     total cpu time spent up to now is     7510.4 secs

     total energy              =  -16491.12793251 Ry
     Harris-Foulkes estimate   =  -16491.17147042 Ry
     estimated scf accuracy    <       0.10074394 Ry

     iteration #  4     ecut=   120.00 Ry     beta= 0.70
     Davidson diagonalization with overlap
     ethr =  2.52E-05,  avg # of iterations =  3.0

     total cpu time spent up to now is     9934.2 secs

     total energy              =  -16491.15255112 Ry
     Harris-Foulkes estimate   =  -16491.16274840 Ry
     estimated scf accuracy    <       0.01869381 Ry

     iteration #  5     ecut=   120.00 Ry     beta= 0.70
     Davidson diagonalization with overlap
     ethr =  4.67E-06,  avg # of iterations =  2.2

     total cpu time spent up to now is    12194.8 secs

     total energy              =  -16491.15640651 Ry
     Harris-Foulkes estimate   =  -16491.15719539 Ry
     estimated scf accuracy    <       0.00141198 Ry

     iteration #  6     ecut=   120.00 Ry     beta= 0.70
     Davidson diagonalization with overlap
     ethr =  3.53E-07,  avg # of iterations =  3.0

     total cpu time spent up to now is    14776.7 secs

     total energy              =  -16491.15679238 Ry
     Harris-Foulkes estimate   =  -16491.15724398 Ry
     estimated scf accuracy    <       0.00106032 Ry

     iteration #  7     ecut=   120.00 Ry     beta= 0.70
     Davidson diagonalization with overlap
     ethr =  2.65E-07,  avg # of iterations =  2.3

     total cpu time spent up to now is    16735.6 secs

     total energy              =  -16491.15701118 Ry
     Harris-Foulkes estimate   =  -16491.15702675 Ry
     estimated scf accuracy    <       0.00004218 Ry

     iteration #  8     ecut=   120.00 Ry     beta= 0.70
     Davidson diagonalization with overlap
     ethr =  1.05E-08,  avg # of iterations =  3.0

     total cpu time spent up to now is    19357.9 secs

     total energy              =  -16491.15702514 Ry
     Harris-Foulkes estimate   =  -16491.15702870 Ry
     estimated scf accuracy    <       0.00000827 Ry

     iteration #  9     ecut=   120.00 Ry     beta= 0.70
     Davidson diagonalization with overlap
     ethr =  2.07E-09,  avg # of iterations =  3.0

     total cpu time spent up to now is    21489.8 secs

     total energy              =  -16491.15702697 Ry
     Harris-Foulkes estimate   =  -16491.15702751 Ry
     estimated scf accuracy    <       0.00000111 Ry

     iteration # 10     ecut=   120.00 Ry     beta= 0.70
     Davidson diagonalization with overlap
     ethr =  2.79E-10,  avg # of iterations =  3.7

     total cpu time spent up to now is    23850.9 secs

     total energy              =  -16491.15702727 Ry
     Harris-Foulkes estimate   =  -16491.15702739 Ry
     estimated scf accuracy    <       0.00000026 Ry

     iteration # 11     ecut=   120.00 Ry     beta= 0.70
     Davidson diagonalization with overlap
     ethr =  6.52E-11,  avg # of iterations =  3.2

     total cpu time spent up to now is    25925.0 secs

     End of self-consistent calculation

          k = 0.1247 0.1267 0.1289 (299656 PWs)   bands (ev):

   -17.5126 -17.4861 -17.4473 -17.4264 -17.4255 -17.4250 -17.4207 -17.4143
   -14.2942 -14.2885 -14.2853 -14.2819 -14.2773 -14.2760 -14.2744 -14.2721
   -14.2699 -14.2680 -14.2675 -14.2616 -14.2608 -14.2578 -14.2547 -14.2539
   -14.2497 -14.2460 -14.2448 -14.2447 -14.2444 -14.2443 -14.2440 -14.2418
   -14.2411 -14.2360 -14.2354 -14.2348 -14.2346 -14.2331 -14.2327 -14.2313
   -14.2286 -14.2272 -14.2263 -14.2250 -14.2197 -14.2176 -14.2152 -14.2075
   -10.4841 -10.4640 -10.4536 -10.4504 -10.4417 -10.4375 -10.4196 -10.4149
    -9.6876  -9.5206  -9.5193  -9.5040  -9.3573  -9.3448  -9.3350  -9.2985
    -9.2833  -9.2681  -9.2461  -9.2386  -9.2277  -9.1974  -9.1869  -9.1753
    -9.1632  -9.1509  -9.1189  -9.0833  -9.0305  -9.0106  -8.9959  -8.9771
    -6.9706  -6.9539  -6.9496  -6.9429  -6.9396  -6.9262  -6.9171  -6.9105
    -6.9060  -6.8717  -6.8163  -6.8055  -6.7994  -6.7882  -6.7752  -6.7718
    -5.8950  -5.4788  -5.4477  -5.4415  -5.0547  -5.0405  -5.0040  -4.8417
    -4.8239  -4.8164  -4.8031  -4.7978  -4.7964  -4.7731  -4.7686  -4.5745
    -2.7982  -2.7752  -2.7675  -2.7627  -2.7537  -2.7505  -2.7396  -2.7361
    -2.7297  -2.7222  -2.7150  -2.7024  -2.7001  -2.6960  -2.6924  -2.6884
    -0.8792  -0.8343  -0.8183  -0.7954  -0.7684  -0.7459  -0.7385  -0.7178
    -0.6570  -0.6048  -0.5934  -0.5529   0.2226   0.2934   0.2988   0.3074
     0.4021   0.4248   0.4321   0.4676   0.4883   0.5461   0.5711   0.5800
     0.6024   0.7274   0.7497   0.7757   0.7987   0.8177   0.8787   0.9129
     0.9218   0.9434   0.9506   0.9621   0.9790   1.0037   1.0148   1.0251
     1.0410   1.0758   1.0995   1.1180   1.1340   1.1471   1.1743   1.1807
     1.2134   1.2181   1.2299   1.2412   1.2455   1.2668   1.2822   1.3094
     1.3195   1.3497   1.3683   1.4176   1.4656   1.4705   1.4905   1.5641
     1.5959   1.6191   1.6707   1.6800   1.7152   1.7810   1.8583   2.0478

          k = 0.1247 0.1267 0.3868 (299719 PWs)   bands (ev):

   -17.5126 -17.4861 -17.4473 -17.4264 -17.4255 -17.4250 -17.4207 -17.4143
   -14.2933 -14.2871 -14.2847 -14.2811 -14.2782 -14.2771 -14.2739 -14.2715
   -14.2699 -14.2684 -14.2669 -14.2635 -14.2603 -14.2574 -14.2547 -14.2539
   -14.2507 -14.2460 -14.2451 -14.2448 -14.2446 -14.2443 -14.2440 -14.2418
   -14.2411 -14.2360 -14.2354 -14.2348 -14.2345 -14.2331 -14.2328 -14.2313
   -14.2286 -14.2272 -14.2262 -14.2250 -14.2197 -14.2176 -14.2152 -14.2075
   -10.4833 -10.4634 -10.4522 -10.4512 -10.4422 -10.4383 -10.4198 -10.4153
    -9.6523  -9.5862  -9.4860  -9.4741  -9.4245  -9.4134  -9.3267  -9.3022
    -9.2809  -9.2536  -9.2212  -9.2117  -9.2027  -9.1935  -9.1777  -9.1676
    -9.1474  -9.1208  -9.1115  -9.0916  -9.0592  -9.0388  -8.9970  -8.9812
    -6.9758  -6.9515  -6.9460  -6.9419  -6.9393  -6.9273  -6.9152  -6.9124
    -6.9045  -6.8776  -6.8105  -6.7993  -6.7922  -6.7894  -6.7820  -6.7778
    -5.7742  -5.5889  -5.3632  -5.3282  -5.1829  -5.1479  -4.9621  -4.8610
    -4.8309  -4.8188  -4.8029  -4.7982  -4.7877  -4.7768  -4.7601  -4.6915
    -2.7969  -2.7691  -2.7655  -2.7623  -2.7504  -2.7459  -2.7411  -2.7379
    -2.7302  -2.7207  -2.7167  -2.7078  -2.7010  -2.6970  -2.6940  -2.6889
    -0.8033  -0.7876  -0.7558  -0.7159  -0.7130  -0.7006  -0.6479  -0.6400
    -0.4799  -0.4026  -0.3713  -0.2685   0.0497   0.1226   0.1430   0.2292
     0.3390   0.3535   0.3856   0.4066   0.4357   0.4546   0.4646   0.4912
     0.5049   0.5423   0.7491   0.7655   0.7852   0.8141   0.8717   0.8984
     0.9088   0.9242   0.9460   0.9689   0.9888   1.0139   1.0302   1.0463
     1.0602   1.0706   1.0793   1.0986   1.1131   1.1336   1.1399   1.1716
     1.1991   1.2091   1.2283   1.2357   1.2543   1.2678   1.2805   1.3077
     1.3502   1.3626   1.3815   1.4130   1.4338   1.4615   1.4665   1.5475
     1.5903   1.6156   1.6375   1.6665   1.6758   1.6862   1.7526   1.8509

          k = 0.1247 0.3802 0.1289 (299663 PWs)   bands (ev):

   -17.5126 -17.4861 -17.4473 -17.4264 -17.4255 -17.4250 -17.4207 -17.4143
   -14.2941 -14.2878 -14.2852 -14.2815 -14.2763 -14.2756 -14.2734 -14.2723
   -14.2692 -14.2688 -14.2685 -14.2621 -14.2610 -14.2587 -14.2547 -14.2539
   -14.2498 -14.2460 -14.2450 -14.2448 -14.2446 -14.2443 -14.2440 -14.2418
   -14.2411 -14.2360 -14.2354 -14.2348 -14.2346 -14.2331 -14.2328 -14.2313
   -14.2286 -14.2272 -14.2263 -14.2250 -14.2197 -14.2176 -14.2152 -14.2075
   -10.4829 -10.4625 -10.4513 -10.4505 -10.4415 -10.4395 -10.4214 -10.4169
    -9.6470  -9.5726  -9.4950  -9.4858  -9.4111  -9.4013  -9.3325  -9.2954
    -9.2845  -9.2785  -9.2478  -9.2387  -9.2301  -9.1794  -9.1780  -9.1574
    -9.1338  -9.0984  -9.0874  -9.0744  -9.0463  -9.0277  -9.0146  -9.0028
    -6.9702  -6.9534  -6.9493  -6.9432  -6.9394  -6.9264  -6.9177  -6.9114
    -6.9054  -6.8713  -6.8158  -6.8053  -6.7999  -6.7867  -6.7772  -6.7726
    -5.7748  -5.5858  -5.3671  -5.3337  -5.1906  -5.1459  -4.9470  -4.8660
    -4.8304  -4.8122  -4.8038  -4.7976  -4.7901  -4.7778  -4.7609  -4.6834
    -2.7899  -2.7757  -2.7657  -2.7565  -2.7516  -2.7472  -2.7410  -2.7384
    -2.7317  -2.7245  -2.7175  -2.7102  -2.7027  -2.6951  -2.6917  -2.6885
    -0.8552  -0.8195  -0.7831  -0.7775  -0.7514  -0.7300  -0.6466  -0.5826
    -0.4326  -0.3868  -0.2761  -0.2264   0.0922   0.1468   0.2657   0.2920
     0.3229   0.3431   0.3488   0.3714   0.4488   0.4575   0.4723   0.5487
     0.5544   0.6245   0.6279   0.6447   0.7234   0.8083   0.8201   0.8313
     0.8899   0.9192   0.9273   0.9533   0.9789   0.9844   1.0000   1.0209
     1.0281   1.0471   1.0954   1.1175   1.1405   1.1547   1.1957   1.2058
     1.2185   1.2245   1.2407   1.2572   1.2642   1.2804   1.3092   1.3217
     1.3473   1.3550   1.4064   1.4159   1.4668   1.4789   1.4978   1.5243
     1.5599   1.5733   1.5778   1.5963   1.6211   1.6556   1.8103   1.8600

          k = 0.1247 0.3802 0.3868 (299651 PWs)   bands (ev):

   -17.5126 -17.4861 -17.4473 -17.4264 -17.4255 -17.4250 -17.4207 -17.4143
   -14.2932 -14.2864 -14.2845 -14.2810 -14.2775 -14.2765 -14.2729 -14.2708
   -14.2700 -14.2690 -14.2679 -14.2643 -14.2604 -14.2584 -14.2547 -14.2539
   -14.2507 -14.2461 -14.2457 -14.2448 -14.2447 -14.2443 -14.2440 -14.2417
   -14.2411 -14.2360 -14.2354 -14.2348 -14.2345 -14.2331 -14.2328 -14.2313
   -14.2286 -14.2272 -14.2263 -14.2250 -14.2197 -14.2176 -14.2152 -14.2075
   -10.4824 -10.4611 -10.4522 -10.4503 -10.4411 -10.4399 -10.4219 -10.4175
    -9.6143  -9.5524  -9.5377  -9.4828  -9.4576  -9.4002  -9.3763  -9.3360
    -9.2852  -9.2545  -9.2080  -9.2044  -9.1976  -9.1683  -9.1495  -9.1459
    -9.1201  -9.1149  -9.1081  -9.0706  -9.0656  -9.0417  -9.0241  -9.0051
    -6.9756  -6.9509  -6.9454  -6.9427  -6.9394  -6.9274  -6.9160  -6.9126
    -6.9037  -6.8775  -6.8104  -6.7991  -6.7921  -6.7892  -6.7824  -6.7782
    -5.6571  -5.4760  -5.4680  -5.2893  -5.2545  -5.0905  -5.0795  -4.9418
    -4.8309  -4.8124  -4.8042  -4.7977  -4.7898  -4.7805  -4.7646  -4.7461
    -2.7898  -2.7771  -2.7689  -2.7567  -2.7488  -2.7451  -2.7408  -2.7374
    -2.7310  -2.7250  -2.7168  -2.7076  -2.7009  -2.6959  -2.6926  -2.6879
    -0.7940  -0.7359  -0.7294  -0.6757  -0.5329  -0.4532  -0.4345  -0.3886
    -0.3146  -0.3001  -0.2893  -0.2787   0.0651   0.1067   0.1343   0.1449
     0.2120   0.2552   0.2725   0.3322   0.3783   0.4117   0.4258   0.4350
     0.5157   0.5441   0.6151   0.6326   0.7098   0.7298   0.7975   0.8302
     0.8660   0.8887   0.9021   0.9429   0.9597   0.9711   0.9972   1.0113
     1.0240   1.0364   1.0510   1.0616   1.1051   1.1176   1.1345   1.1552
     1.2069   1.2297   1.2490   1.2534   1.2634   1.2885   1.3096   1.3235
     1.3769   1.3906   1.4034   1.4350   1.4503   1.4708   1.4901   1.4971
     1.5099   1.5415   1.5788   1.5869   1.6152   1.6453   1.6663   1.7008

          k = 0.3742 0.1267 0.1289 (299718 PWs)   bands (ev):

   -17.5126 -17.4861 -17.4473 -17.4263 -17.4256 -17.4250 -17.4207 -17.4143
   -14.2932 -14.2881 -14.2849 -14.2813 -14.2783 -14.2767 -14.2748 -14.2717
   -14.2698 -14.2675 -14.2663 -14.2627 -14.2608 -14.2583 -14.2547 -14.2539
   -14.2503 -14.2460 -14.2448 -14.2446 -14.2444 -14.2443 -14.2440 -14.2418
   -14.2411 -14.2360 -14.2354 -14.2348 -14.2346 -14.2331 -14.2327 -14.2313
   -14.2286 -14.2272 -14.2263 -14.2250 -14.2197 -14.2176 -14.2152 -14.2075
   -10.4839 -10.4633 -10.4536 -10.4496 -10.4416 -10.4375 -10.4206 -10.4158
    -9.6464  -9.5874  -9.4888  -9.4788  -9.4179  -9.4016  -9.3314  -9.2997
    -9.2830  -9.2746  -9.2429  -9.2316  -9.1982  -9.1877  -9.1780  -9.1533
    -9.1281  -9.1160  -9.1055  -9.0900  -9.0517  -9.0243  -9.0187  -8.9857
    -6.9705  -6.9533  -6.9495  -6.9424  -6.9393  -6.9261  -6.9173  -6.9115
    -6.9057  -6.8718  -6.8162  -6.8053  -6.8000  -6.7867  -6.7752  -6.7734
    -5.7829  -5.6096  -5.3440  -5.3389  -5.1803  -5.1678  -4.9229  -4.8622
    -4.8323  -4.8068  -4.8045  -4.7992  -4.7871  -4.7712  -4.7679  -4.6785
    -2.7957  -2.7746  -2.7682  -2.7571  -2.7526  -2.7481  -2.7388  -2.7378
    -2.7299  -2.7217  -2.7121  -2.7073  -2.7019  -2.6985  -2.6952  -2.6890
    -0.8590  -0.8178  -0.8036  -0.7666  -0.7451  -0.7099  -0.6301  -0.5984
    -0.4491  -0.3804  -0.2966  -0.2255   0.0898   0.1602   0.2636   0.2852
     0.3146   0.3281   0.3475   0.3652   0.4291   0.4409   0.4543   0.5225
     0.5474   0.6093   0.6217   0.6627   0.7003   0.7859   0.8157   0.8201
     0.8727   0.8947   0.9341   0.9722   0.9851   1.0192   1.0222   1.0402
     1.0548   1.0664   1.0959   1.1091   1.1240   1.1500   1.1962   1.2136
     1.2266   1.2363   1.2417   1.2511   1.2771   1.2837   1.2980   1.3101
     1.3260   1.3448   1.3866   1.4231   1.4531   1.4740   1.4976   1.5516
     1.5690   1.5837   1.5962   1.6029   1.6338   1.6426   1.8787   1.9027

          k = 0.3742 0.1267 0.3868 (299729 PWs)   bands (ev):

   -17.5126 -17.4861 -17.4473 -17.4263 -17.4256 -17.4250 -17.4207 -17.4143
   -14.2922 -14.2870 -14.2830 -14.2818 -14.2790 -14.2782 -14.2742 -14.2715
   -14.2691 -14.2675 -14.2664 -14.2635 -14.2618 -14.2576 -14.2547 -14.2539
   -14.2513 -14.2460 -14.2452 -14.2448 -14.2446 -14.2443 -14.2441 -14.2418
   -14.2411 -14.2360 -14.2354 -14.2348 -14.2345 -14.2331 -14.2328 -14.2313
   -14.2286 -14.2272 -14.2262 -14.2250 -14.2197 -14.2176 -14.2152 -14.2075
   -10.4830 -10.4629 -10.4519 -10.4507 -10.4424 -10.4378 -10.4209 -10.4164
    -9.6129  -9.5520  -9.5490  -9.4894  -9.4540  -9.3981  -9.3812  -9.3450
    -9.2426  -9.2240  -9.2116  -9.2000  -9.1889  -9.1793  -9.1623  -9.1518
    -9.1346  -9.1275  -9.1126  -9.0785  -9.0682  -9.0389  -9.0220  -8.9973
    -6.9758  -6.9503  -6.9458  -6.9423  -6.9391  -6.9270  -6.9156  -6.9128
    -6.9041  -6.8775  -6.8105  -6.7994  -6.7929  -6.7884  -6.7819  -6.7783
    -5.6650  -5.4925  -5.4831  -5.3110  -5.2295  -5.0797  -5.0544  -4.9339
    -4.8307  -4.8077  -4.8030  -4.7953  -4.7928  -4.7799  -4.7671  -4.7464
    -2.7948  -2.7695  -2.7639  -2.7579  -2.7497  -2.7468  -2.7414  -2.7371
    -2.7309  -2.7210  -2.7127  -2.7080  -2.7067  -2.6980  -2.6947  -2.6909
    -0.7854  -0.7379  -0.7238  -0.6756  -0.5216  -0.4540  -0.4237  -0.3953
    -0.3497  -0.3017  -0.2864  -0.2650   0.0630   0.0717   0.1237   0.1519
     0.2143   0.2317   0.2515   0.3132   0.4051   0.4104   0.4228   0.4320
     0.5216   0.5686   0.6211   0.6590   0.6713   0.7174   0.7337   0.7844
     0.8148   0.8682   0.8757   0.9051   0.9227   0.9713   1.0140   1.0315
     1.0363   1.0540   1.0593   1.0783   1.1151   1.1431   1.1680   1.1737
     1.2196   1.2525   1.2570   1.2683   1.2818   1.3013   1.3132   1.3337
     1.3534   1.3776   1.3914   1.4183   1.4510   1.4719   1.4775   1.5304
     1.5447   1.5602   1.5820   1.5855   1.6265   1.6532   1.6983   1.7261

          k = 0.3742 0.3802 0.1289 (299664 PWs)   bands (ev):

   -17.5126 -17.4861 -17.4473 -17.4263 -17.4256 -17.4250 -17.4207 -17.4143
   -14.2932 -14.2874 -14.2849 -14.2809 -14.2780 -14.2757 -14.2739 -14.2718
   -14.2691 -14.2683 -14.2674 -14.2629 -14.2612 -14.2593 -14.2547 -14.2539
   -14.2504 -14.2460 -14.2450 -14.2448 -14.2446 -14.2443 -14.2440 -14.2418
   -14.2411 -14.2360 -14.2354 -14.2348 -14.2346 -14.2331 -14.2328 -14.2313
   -14.2286 -14.2273 -14.2263 -14.2250 -14.2197 -14.2176 -14.2152 -14.2075
   -10.4830 -10.4634 -10.4507 -10.4493 -10.4418 -10.4397 -10.4213 -10.4167
    -9.6052  -9.5679  -9.5477  -9.4556  -9.4493  -9.3985  -9.3806  -9.3324
    -9.2830  -9.2749  -9.2473  -9.2368  -9.1862  -9.1460  -9.1391  -9.1246
    -9.1139  -9.1076  -9.0951  -9.0833  -9.0555  -9.0433  -9.0371  -9.0097
    -6.9701  -6.9534  -6.9497  -6.9422  -6.9394  -6.9261  -6.9182  -6.9113
    -6.9043  -6.8714  -6.8157  -6.8052  -6.7994  -6.7874  -6.7761  -6.7743
    -5.6661  -5.5028  -5.4742  -5.3171  -5.2386  -5.0671  -5.0395  -4.9442
    -4.8335  -4.8134  -4.8007  -4.7966  -4.7922  -4.7757  -4.7646  -4.7378
    -2.7884  -2.7741  -2.7651  -2.7539  -2.7489  -2.7454  -2.7400  -2.7384
    -2.7315  -2.7256  -2.7168  -2.7123  -2.7058  -2.6990  -2.6930  -2.6882
    -0.8306  -0.7901  -0.7552  -0.7063  -0.4979  -0.4708  -0.4465  -0.3405
    -0.3245  -0.2999  -0.2699  -0.2289   0.0661   0.1327   0.1479   0.2219
     0.2857   0.2930   0.3212   0.3324   0.3490   0.3682   0.3837   0.4442
     0.5430   0.5752   0.5923   0.6051   0.7099   0.7211   0.7376   0.7607
     0.7849   0.8082   0.8642   0.8851   0.9040   0.9258   0.9630   0.9696
     1.0181   1.0569   1.0833   1.1148   1.1430   1.1759   1.1851   1.1946
     1.2167   1.2309   1.2428   1.2639   1.2745   1.2981   1.3165   1.3540
     1.3935   1.4178   1.4253   1.4303   1.4599   1.4731   1.4849   1.4948
     1.5242   1.5379   1.5500   1.5577   1.5724   1.6545   1.6740   1.6952

          k = 0.3742 0.3802 0.3868 (299710 PWs)   bands (ev):

   -17.5126 -17.4861 -17.4473 -17.4263 -17.4256 -17.4250 -17.4207 -17.4143
   -14.2921 -14.2862 -14.2830 -14.2817 -14.2789 -14.2769 -14.2733 -14.2709
   -14.2691 -14.2682 -14.2673 -14.2642 -14.2619 -14.2585 -14.2547 -14.2539
   -14.2514 -14.2461 -14.2457 -14.2448 -14.2446 -14.2443 -14.2441 -14.2418
   -14.2411 -14.2360 -14.2354 -14.2348 -14.2345 -14.2331 -14.2328 -14.2313
   -14.2286 -14.2272 -14.2262 -14.2250 -14.2197 -14.2176 -14.2152 -14.2075
   -10.4824 -10.4621 -10.4519 -10.4488 -10.4413 -10.4404 -10.4218 -10.4173
    -9.5747  -9.5336  -9.5183  -9.5116  -9.4689  -9.4528  -9.4251  -9.3861
    -9.2435  -9.2170  -9.1957  -9.1866  -9.1772  -9.1554  -9.1430  -9.1375
    -9.1239  -9.1129  -9.0948  -9.0797  -9.0641  -9.0555  -9.0462  -9.0170
    -6.9755  -6.9506  -6.9460  -6.9419  -6.9387  -6.9274  -6.9160  -6.9126
    -6.9030  -6.8776  -6.8104  -6.7993  -6.7924  -6.7890  -6.7821  -6.7787
    -5.5526  -5.3879  -5.3766  -5.3593  -5.2142  -5.2082  -5.1802  -5.0546
    -4.8323  -4.8132  -4.8009  -4.7960  -4.7936  -4.7837  -4.7657  -4.7597
    -2.7886  -2.7760  -2.7687  -2.7519  -2.7471  -2.7447  -2.7417  -2.7384
    -2.7314  -2.7250  -2.7149  -2.7091  -2.7047  -2.6966  -2.6928  -2.6890
    -0.5443  -0.5213  -0.4916  -0.4463  -0.4286  -0.3724  -0.3612  -0.3434
    -0.3327  -0.3059  -0.2968  -0.2132   0.0655   0.0818   0.1114   0.1313
     0.1811   0.2058   0.2229   0.2294   0.2810   0.2895   0.2989   0.3597
     0.5915   0.6060   0.6213   0.6437   0.6742   0.7025   0.7298   0.7555
     0.7689   0.7957   0.8378   0.8604   0.8750   0.9006   0.9064   0.9265
     0.9501   0.9739   0.9916   1.0100   1.0374   1.0499   1.0769   1.0910
     1.2386   1.2665   1.2781   1.2846   1.3037   1.3193   1.3330   1.3594
     1.4009   1.4060   1.4230   1.4361   1.4529   1.4678   1.4745   1.4980
     1.5054   1.5363   1.5525   1.5586   1.5670   1.5792   1.5908   1.5957

          k =-0.1247-0.1267 0.1289 (299656 PWs)   bands (ev):

   -17.5126 -17.4861 -17.4473 -17.4264 -17.4255 -17.4250 -17.4207 -17.4143
   -14.2942 -14.2885 -14.2853 -14.2819 -14.2773 -14.2760 -14.2744 -14.2721
   -14.2699 -14.2680 -14.2675 -14.2616 -14.2608 -14.2578 -14.2547 -14.2539
   -14.2497 -14.2460 -14.2448 -14.2447 -14.2444 -14.2443 -14.2440 -14.2418
   -14.2411 -14.2360 -14.2354 -14.2348 -14.2346 -14.2331 -14.2327 -14.2313
   -14.2286 -14.2272 -14.2263 -14.2250 -14.2197 -14.2176 -14.2152 -14.2075
   -10.4841 -10.4641 -10.4535 -10.4504 -10.4417 -10.4376 -10.4196 -10.4148
    -9.6872  -9.5224  -9.5180  -9.5049  -9.3566  -9.3439  -9.3347  -9.2995
    -9.2810  -9.2688  -9.2446  -9.2400  -9.2302  -9.1984  -9.1857  -9.1752
    -9.1625  -9.1508  -9.1182  -9.0837  -9.0308  -9.0107  -8.9958  -8.9771
    -6.9706  -6.9539  -6.9496  -6.9430  -6.9397  -6.9262  -6.9173  -6.9105
    -6.9057  -6.8718  -6.8162  -6.8055  -6.7994  -6.7882  -6.7753  -6.7718
    -5.8949  -5.4788  -5.4476  -5.4416  -5.0546  -5.0405  -5.0039  -4.8418
    -4.8243  -4.8164  -4.8031  -4.7978  -4.7964  -4.7733  -4.7685  -4.5741
    -2.7980  -2.7744  -2.7678  -2.7629  -2.7534  -2.7506  -2.7398  -2.7356
    -2.7295  -2.7221  -2.7152  -2.7032  -2.6997  -2.6968  -2.6916  -2.6893
    -0.8836  -0.8333  -0.8173  -0.7978  -0.7687  -0.7508  -0.7308  -0.7152
    -0.6563  -0.6050  -0.5932  -0.5526   0.2233   0.2940   0.2979   0.3061
     0.3990   0.4231   0.4356   0.4668   0.4872   0.5474   0.5727   0.5834
     0.6030   0.7258   0.7499   0.7841   0.7958   0.8123   0.8815   0.9125
     0.9171   0.9416   0.9497   0.9713   0.9779   0.9915   1.0147   1.0222
     1.0392   1.0815   1.1013   1.1204   1.1338   1.1439   1.1731   1.1872
     1.2087   1.2189   1.2351   1.2420   1.2489   1.2677   1.2814   1.3051
     1.3193   1.3493   1.3656   1.4196   1.4649   1.4723   1.4894   1.5628
     1.5950   1.6193   1.6722   1.6790   1.7157   1.7806   1.8583   2.0493

          k =-0.1247 0.1267-0.1289 (299656 PWs)   bands (ev):

   -17.5126 -17.4861 -17.4473 -17.4264 -17.4255 -17.4250 -17.4207 -17.4143
   -14.2942 -14.2885 -14.2853 -14.2819 -14.2773 -14.2760 -14.2744 -14.2721
   -14.2699 -14.2680 -14.2675 -14.2616 -14.2608 -14.2578 -14.2547 -14.2539
   -14.2497 -14.2460 -14.2448 -14.2447 -14.2444 -14.2443 -14.2440 -14.2418
   -14.2411 -14.2360 -14.2354 -14.2348 -14.2346 -14.2331 -14.2327 -14.2313
   -14.2286 -14.2272 -14.2263 -14.2250 -14.2197 -14.2176 -14.2152 -14.2075
   -10.4843 -10.4648 -10.4531 -10.4506 -10.4419 -10.4377 -10.4190 -10.4142
    -9.6922  -9.5198  -9.5114  -9.4976  -9.3680  -9.3534  -9.3371  -9.2930
    -9.2789  -9.2710  -9.2515  -9.2338  -9.2277  -9.1987  -9.1860  -9.1759
    -9.1602  -9.1471  -9.1178  -9.0850  -9.0324  -9.0121  -8.9948  -8.9759
    -6.9706  -6.9538  -6.9492  -6.9432  -6.9395  -6.9262  -6.9173  -6.9111
    -6.9059  -6.8717  -6.8162  -6.8054  -6.8000  -6.7870  -6.7759  -6.7717
    -5.8951  -5.4781  -5.4465  -5.4410  -5.0542  -5.0444  -5.0098  -4.8407
    -4.8228  -4.8161  -4.8022  -4.7967  -4.7948  -4.7712  -4.7670  -4.5767
    -2.7982  -2.7752  -2.7660  -2.7642  -2.7532  -2.7516  -2.7386  -2.7348
    -2.7293  -2.7242  -2.7156  -2.7043  -2.6997  -2.6961  -2.6905  -2.6886
    -0.8977  -0.8693  -0.8039  -0.7819  -0.7686  -0.7421  -0.7264  -0.7084
    -0.6594  -0.6043  -0.5917  -0.5352   0.2211   0.2870   0.3098   0.3148
     0.3800   0.4083   0.4398   0.4542   0.4761   0.5162   0.5791   0.5887
     0.6365   0.7290   0.7474   0.7702   0.7839   0.8218   0.8692   0.8806
     0.9127   0.9370   0.9574   0.9732   1.0035   1.0217   1.0309   1.0551
     1.0650   1.0811   1.0979   1.1157   1.1292   1.1436   1.1554   1.1786
     1.2010   1.2138   1.2193   1.2315   1.2421   1.2756   1.2821   1.3054
     1.3384   1.3493   1.3619   1.4034   1.4598   1.4780   1.5000   1.5664
     1.5938   1.6187   1.6381   1.6684   1.7705   1.7777   1.8515   2.0715

          k = 0.1247-0.1267-0.1289 (299656 PWs)   bands (ev):

   -17.5126 -17.4861 -17.4473 -17.4264 -17.4255 -17.4250 -17.4207 -17.4143
   -14.2942 -14.2885 -14.2853 -14.2819 -14.2773 -14.2760 -14.2744 -14.2721
   -14.2699 -14.2680 -14.2675 -14.2616 -14.2608 -14.2578 -14.2547 -14.2539
   -14.2497 -14.2460 -14.2448 -14.2447 -14.2444 -14.2443 -14.2440 -14.2418
   -14.2411 -14.2360 -14.2354 -14.2348 -14.2346 -14.2331 -14.2327 -14.2313
   -14.2286 -14.2272 -14.2263 -14.2250 -14.2197 -14.2176 -14.2152 -14.2075
   -10.4843 -10.4648 -10.4532 -10.4505 -10.4420 -10.4376 -10.4190 -10.4142
    -9.6922  -9.5201  -9.5116  -9.4966  -9.3688  -9.3532  -9.3370  -9.2922
    -9.2779  -9.2718  -9.2514  -9.2372  -9.2258  -9.1978  -9.1872  -9.1746
    -9.1595  -9.1470  -9.1192  -9.0844  -9.0327  -9.0117  -8.9949  -8.9759
    -6.9706  -6.9535  -6.9494  -6.9432  -6.9395  -6.9262  -6.9170  -6.9111
    -6.9064  -6.8716  -6.8163  -6.8054  -6.7999  -6.7871  -6.7758  -6.7717
    -5.8952  -5.4782  -5.4464  -5.4408  -5.0546  -5.0443  -5.0099  -4.8408
    -4.8227  -4.8160  -4.8022  -4.7966  -4.7949  -4.7711  -4.7671  -4.5767
    -2.7983  -2.7759  -2.7658  -2.7638  -2.7539  -2.7513  -2.7392  -2.7349
    -2.7295  -2.7235  -2.7157  -2.7022  -2.7002  -2.6957  -2.6909  -2.6894
    -0.8983  -0.8698  -0.8041  -0.7786  -0.7653  -0.7468  -0.7299  -0.7048
    -0.6594  -0.6045  -0.5921  -0.5358   0.2216   0.2871   0.3106   0.3148
     0.3814   0.4043   0.4435   0.4567   0.4723   0.5140   0.5808   0.5873
     0.6362   0.7300   0.7513   0.7692   0.7867   0.8215   0.8708   0.8810
     0.9070   0.9326   0.9590   0.9724   1.0031   1.0143   1.0310   1.0599
     1.0665   1.0839   1.0990   1.1101   1.1321   1.1477   1.1565   1.1770
     1.2020   1.2095   1.2173   1.2346   1.2442   1.2725   1.2854   1.3005
     1.3442   1.3488   1.3618   1.4024   1.4594   1.4787   1.4984   1.5662
     1.5943   1.6194   1.6371   1.6681   1.7716   1.7763   1.8520   2.0721

          k =-0.1247-0.1267 0.3868 (299719 PWs)   bands (ev):

   -17.5126 -17.4861 -17.4473 -17.4264 -17.4255 -17.4250 -17.4207 -17.4143
   -14.2933 -14.2871 -14.2847 -14.2811 -14.2782 -14.2771 -14.2739 -14.2715
   -14.2699 -14.2684 -14.2669 -14.2635 -14.2603 -14.2574 -14.2547 -14.2539
   -14.2507 -14.2460 -14.2451 -14.2448 -14.2446 -14.2443 -14.2440 -14.2418
   -14.2411 -14.2360 -14.2354 -14.2348 -14.2345 -14.2331 -14.2328 -14.2313
   -14.2286 -14.2272 -14.2262 -14.2250 -14.2197 -14.2176 -14.2152 -14.2075
   -10.4833 -10.4634 -10.4522 -10.4512 -10.4423 -10.4384 -10.4199 -10.4152
    -9.6512  -9.5875  -9.4863  -9.4757  -9.4228  -9.4125  -9.3283  -9.3001
    -9.2814  -9.2537  -9.2205  -9.2123  -9.2045  -9.1935  -9.1775  -9.1650
    -9.1503  -9.1198  -9.1102  -9.0917  -9.0600  -9.0391  -8.9968  -8.9812
    -6.9758  -6.9515  -6.9459  -6.9420  -6.9393  -6.9273  -6.9155  -6.9124
    -6.9039  -6.8777  -6.8105  -6.7993  -6.7920  -6.7895  -6.7821  -6.7778
    -5.7740  -5.5891  -5.3632  -5.3283  -5.1828  -5.1478  -4.9616  -4.8620
    -4.8312  -4.8187  -4.8029  -4.7982  -4.7875  -4.7771  -4.7602  -4.6906
    -2.7966  -2.7680  -2.7656  -2.7623  -2.7505  -2.7470  -2.7408  -2.7375
    -2.7282  -2.7209  -2.7177  -2.7094  -2.7001  -2.6975  -2.6933  -2.6900
    -0.8048  -0.7864  -0.7572  -0.7217  -0.7144  -0.6951  -0.6486  -0.6403
    -0.4763  -0.3997  -0.3701  -0.2684   0.0468   0.1212   0.1418   0.2328
     0.3354   0.3544   0.3888   0.4087   0.4353   0.4503   0.4675   0.4928
     0.5016   0.5427   0.7501   0.7667   0.7841   0.8086   0.8708   0.8970
     0.9075   0.9280   0.9446   0.9712   0.9857   1.0146   1.0312   1.0463
     1.0585   1.0732   1.0820   1.0980   1.1127   1.1355   1.1405   1.1708
     1.2013   1.2099   1.2275   1.2342   1.2555   1.2701   1.2733   1.3101
     1.3499   1.3656   1.3815   1.4144   1.4364   1.4596   1.4635   1.5460
     1.5886   1.6143   1.6377   1.6682   1.6787   1.6831   1.7514   1.8530

          k =-0.1247 0.1267-0.3868 (299719 PWs)   bands (ev):

   -17.5126 -17.4861 -17.4473 -17.4264 -17.4255 -17.4250 -17.4207 -17.4143
   -14.2933 -14.2871 -14.2847 -14.2811 -14.2782 -14.2771 -14.2739 -14.2715
   -14.2699 -14.2684 -14.2669 -14.2635 -14.2603 -14.2574 -14.2547 -14.2539
   -14.2507 -14.2460 -14.2451 -14.2448 -14.2446 -14.2443 -14.2440 -14.2418
   -14.2411 -14.2360 -14.2354 -14.2348 -14.2345 -14.2331 -14.2328 -14.2313
   -14.2286 -14.2272 -14.2262 -14.2250 -14.2197 -14.2176 -14.2152 -14.2075
   -10.4834 -10.4640 -10.4523 -10.4508 -10.4423 -10.4388 -10.4193 -10.4146
    -9.6555  -9.5891  -9.4782  -9.4689  -9.4186  -9.4102  -9.3447  -9.3092
    -9.2809  -9.2527  -9.2188  -9.2092  -9.2029  -9.1957  -9.1791  -9.1631
    -9.1435  -9.1216  -9.1110  -9.0921  -9.0610  -9.0406  -8.9953  -8.9802
    -6.9759  -6.9512  -6.9455  -6.9424  -6.9397  -6.9271  -6.9159  -6.9126
    -6.9040  -6.8777  -6.8105  -6.7992  -6.7925  -6.7888  -6.7823  -6.7778
    -5.7732  -5.5873  -5.3635  -5.3301  -5.1847  -5.1511  -4.9592  -4.8562
    -4.8322  -4.8212  -4.8030  -4.7986  -4.7866  -4.7759  -4.7591  -4.6931
    -2.7969  -2.7682  -2.7663  -2.7609  -2.7509  -2.7460  -2.7402  -2.7382
    -2.7274  -2.7239  -2.7181  -2.7097  -2.7010  -2.6961  -2.6933  -2.6887
    -0.8511  -0.7933  -0.7453  -0.7090  -0.6908  -0.6844  -0.6447  -0.6296
    -0.4875  -0.3944  -0.3658  -0.2730   0.0416   0.1206   0.1437   0.2299
     0.3259   0.3522   0.3932   0.4110   0.4203   0.4551   0.4673   0.4757
     0.4992   0.5672   0.7618   0.7718   0.7855   0.8110   0.8185   0.8468
     0.9247   0.9435   0.9637   0.9807   0.9956   1.0210   1.0319   1.0528
     1.0587   1.0628   1.0786   1.0948   1.1064   1.1373   1.1580   1.1697
     1.1865   1.2084   1.2206   1.2379   1.2522   1.2583   1.2860   1.3426
     1.3630   1.3692   1.3822   1.4102   1.4319   1.4578   1.4675   1.5466
     1.5830   1.6113   1.6266   1.6437   1.6536   1.6731   1.7995   1.8831

          k = 0.1247-0.1267-0.3868 (299719 PWs)   bands (ev):

   -17.5126 -17.4861 -17.4473 -17.4264 -17.4255 -17.4250 -17.4207 -17.4143
   -14.2933 -14.2871 -14.2847 -14.2811 -14.2782 -14.2771 -14.2739 -14.2715
   -14.2699 -14.2684 -14.2669 -14.2635 -14.2603 -14.2574 -14.2547 -14.2539
   -14.2507 -14.2460 -14.2451 -14.2448 -14.2446 -14.2443 -14.2440 -14.2418
   -14.2411 -14.2360 -14.2354 -14.2348 -14.2345 -14.2331 -14.2328 -14.2313
   -14.2286 -14.2272 -14.2262 -14.2250 -14.2197 -14.2176 -14.2152 -14.2075
   -10.4835 -10.4640 -10.4524 -10.4508 -10.4423 -10.4387 -10.4193 -10.4146
    -9.6556  -9.5890  -9.4790  -9.4677  -9.4185  -9.4106  -9.3454  -9.3085
    -9.2808  -9.2533  -9.2184  -9.2101  -9.2022  -9.1962  -9.1793  -9.1605
    -9.1453  -9.1216  -9.1102  -9.0927  -9.0616  -9.0398  -8.9955  -8.9802
    -6.9759  -6.9510  -6.9456  -6.9424  -6.9396  -6.9271  -6.9156  -6.9126
    -6.9046  -6.8775  -6.8105  -6.7993  -6.7922  -6.7891  -6.7823  -6.7777
    -5.7734  -5.5870  -5.3634  -5.3297  -5.1848  -5.1514  -4.9596  -4.8558
    -4.8320  -4.8212  -4.8029  -4.7985  -4.7869  -4.7755  -4.7591  -4.6933
    -2.7969  -2.7692  -2.7662  -2.7605  -2.7508  -2.7455  -2.7413  -2.7382
    -2.7291  -2.7223  -2.7178  -2.7083  -2.7000  -2.6966  -2.6935  -2.6895
    -0.8523  -0.7918  -0.7461  -0.7060  -0.6926  -0.6828  -0.6475  -0.6292
    -0.4865  -0.3966  -0.3647  -0.2741   0.0423   0.1234   0.1417   0.2308
     0.3268   0.3543   0.3897   0.4129   0.4168   0.4527   0.4706   0.4736
     0.5020   0.5685   0.7644   0.7694   0.7775   0.8152   0.8176   0.8463
     0.9252   0.9472   0.9606   0.9841   0.9973   1.0185   1.0345   1.0511
     1.0579   1.0666   1.0787   1.0932   1.1013   1.1345   1.1618   1.1717
     1.1849   1.2094   1.2220   1.2382   1.2480   1.2651   1.2812   1.3449
     1.3600   1.3717   1.3790   1.4111   1.4303   1.4591   1.4685   1.5451
     1.5850   1.6130   1.6224   1.6422   1.6528   1.6766   1.7996   1.8836

          k =-0.1247-0.3802 0.1289 (299663 PWs)   bands (ev):

   -17.5126 -17.4861 -17.4473 -17.4264 -17.4255 -17.4250 -17.4207 -17.4143
   -14.2941 -14.2878 -14.2852 -14.2815 -14.2763 -14.2756 -14.2734 -14.2723
   -14.2692 -14.2688 -14.2685 -14.2621 -14.2610 -14.2587 -14.2547 -14.2539
   -14.2498 -14.2460 -14.2450 -14.2448 -14.2446 -14.2443 -14.2440 -14.2418
   -14.2411 -14.2360 -14.2354 -14.2348 -14.2346 -14.2331 -14.2328 -14.2313
   -14.2286 -14.2272 -14.2263 -14.2250 -14.2197 -14.2176 -14.2152 -14.2075
   -10.4829 -10.4625 -10.4512 -10.4505 -10.4415 -10.4396 -10.4214 -10.4169
    -9.6464  -9.5730  -9.4955  -9.4866  -9.4107  -9.4014  -9.3309  -9.2965
    -9.2837  -9.2756  -9.2491  -9.2397  -9.2324  -9.1792  -9.1773  -9.1573
    -9.1332  -9.0987  -9.0863  -9.0750  -9.0467  -9.0280  -9.0142  -9.0030
    -6.9702  -6.9535  -6.9492  -6.9432  -6.9395  -6.9264  -6.9178  -6.9113
    -6.9051  -6.8713  -6.8158  -6.8053  -6.7999  -6.7866  -6.7773  -6.7726
    -5.7746  -5.5860  -5.3672  -5.3339  -5.1905  -5.1458  -4.9467  -4.8668
    -4.8305  -4.8122  -4.8038  -4.7976  -4.7902  -4.7780  -4.7609  -4.6827
    -2.7895  -2.7754  -2.7651  -2.7567  -2.7522  -2.7469  -2.7402  -2.7388
    -2.7298  -2.7260  -2.7172  -2.7121  -2.7015  -2.6950  -2.6920  -2.6894
    -0.8561  -0.8219  -0.7857  -0.7782  -0.7458  -0.7303  -0.6468  -0.5827
    -0.4315  -0.3843  -0.2768  -0.2248   0.0915   0.1452   0.2649   0.2910
     0.3212   0.3390   0.3524   0.3715   0.4510   0.4595   0.4777   0.5461
     0.5531   0.6230   0.6297   0.6416   0.7204   0.8123   0.8221   0.8322
     0.8894   0.9199   0.9283   0.9564   0.9769   0.9797   0.9959   1.0094
     1.0327   1.0526   1.0994   1.1145   1.1414   1.1556   1.1958   1.2051
     1.2195   1.2277   1.2440   1.2555   1.2677   1.2808   1.3023   1.3241
     1.3409   1.3537   1.4014   1.4232   1.4664   1.4849   1.4958   1.5213
     1.5586   1.5713   1.5810   1.5986   1.6225   1.6524   1.8104   1.8610

          k =-0.1247 0.3802-0.1289 (299663 PWs)   bands (ev):

   -17.5126 -17.4861 -17.4473 -17.4264 -17.4255 -17.4250 -17.4207 -17.4143
   -14.2941 -14.2878 -14.2852 -14.2815 -14.2763 -14.2756 -14.2734 -14.2723
   -14.2692 -14.2688 -14.2685 -14.2621 -14.2610 -14.2587 -14.2547 -14.2539
   -14.2498 -14.2460 -14.2450 -14.2448 -14.2446 -14.2443 -14.2440 -14.2418
   -14.2411 -14.2360 -14.2354 -14.2348 -14.2346 -14.2331 -14.2328 -14.2313
   -14.2286 -14.2272 -14.2263 -14.2250 -14.2197 -14.2176 -14.2152 -14.2075
   -10.4830 -10.4633 -10.4514 -10.4500 -10.4421 -10.4392 -10.4208 -10.4163
    -9.6569  -9.5603  -9.4882  -9.4749  -9.4297  -9.4078  -9.3315  -9.2923
    -9.2876  -9.2766  -9.2535  -9.2342  -9.2298  -9.1798  -9.1783  -9.1564
    -9.1317  -9.0946  -9.0880  -9.0726  -9.0502  -9.0318  -9.0151  -8.9989
    -6.9702  -6.9533  -6.9488  -6.9435  -6.9393  -6.9264  -6.9180  -6.9117
    -6.9053  -6.8713  -6.8158  -6.8052  -6.8004  -6.7852  -6.7782  -6.7725
    -5.7750  -5.5857  -5.3676  -5.3273  -5.1898  -5.1540  -4.9612  -4.8501
    -4.8303  -4.8172  -4.8017  -4.7962  -4.7849  -4.7776  -4.7568  -4.6913
    -2.7901  -2.7745  -2.7664  -2.7575  -2.7510  -2.7466  -2.7407  -2.7396
    -2.7281  -2.7251  -2.7201  -2.7123  -2.7020  -2.6950  -2.6905  -2.6886
    -0.8635  -0.8364  -0.7867  -0.7693  -0.7436  -0.7319  -0.6512  -0.5875
    -0.4153  -0.3616  -0.2527  -0.2101   0.0800   0.1073   0.2543   0.2742
     0.3242   0.3324   0.3657   0.3867   0.4271   0.4376   0.4633   0.5132
     0.5540   0.6261   0.6550   0.6866   0.7133   0.8163   0.8239   0.8362
     0.8905   0.9066   0.9252   0.9742   0.9795   0.9899   1.0041   1.0275
     1.0403   1.0567   1.0933   1.1076   1.1416   1.1484   1.1826   1.2007
     1.2170   1.2257   1.2451   1.2619   1.2651   1.2838   1.3041   1.3319
     1.3401   1.3571   1.3968   1.4145   1.4466   1.4739   1.4985   1.5282
     1.5448   1.5645   1.5773   1.5969   1.6288   1.6848   1.7898   1.8986

          k = 0.1247-0.3802-0.1289 (299663 PWs)   bands (ev):

   -17.5126 -17.4861 -17.4473 -17.4264 -17.4255 -17.4250 -17.4207 -17.4143
   -14.2941 -14.2878 -14.2852 -14.2815 -14.2763 -14.2756 -14.2734 -14.2723
   -14.2692 -14.2688 -14.2685 -14.2621 -14.2610 -14.2587 -14.2547 -14.2539
   -14.2498 -14.2460 -14.2450 -14.2448 -14.2446 -14.2443 -14.2440 -14.2418
   -14.2411 -14.2360 -14.2354 -14.2348 -14.2346 -14.2331 -14.2328 -14.2313
   -14.2286 -14.2272 -14.2263 -14.2250 -14.2197 -14.2176 -14.2152 -14.2075
   -10.4830 -10.4633 -10.4515 -10.4500 -10.4421 -10.4390 -10.4208 -10.4163
    -9.6573  -9.5596  -9.4873  -9.4748  -9.4305  -9.4097  -9.3299  -9.2929
    -9.2852  -9.2760  -9.2551  -9.2381  -9.2284  -9.1801  -9.1760  -9.1563
    -9.1323  -9.0948  -9.0881  -9.0731  -9.0497  -9.0310  -9.0159  -8.9988
    -6.9702  -6.9531  -6.9489  -6.9436  -6.9393  -6.9264  -6.9176  -6.9117
    -6.9059  -6.8712  -6.8158  -6.8052  -6.8004  -6.7853  -6.7781  -6.7725
    -5.7752  -5.5855  -5.3676  -5.3270  -5.1900  -5.1542  -4.9616  -4.8497
    -4.8300  -4.8173  -4.8019  -4.7961  -4.7847  -4.7774  -4.7568  -4.6918
    -2.7904  -2.7747  -2.7666  -2.7570  -2.7509  -2.7464  -2.7414  -2.7394
    -2.7304  -2.7240  -2.7200  -2.7104  -2.7012  -2.6948  -2.6911  -2.6894
    -0.8628  -0.8379  -0.7840  -0.7778  -0.7357  -0.7321  -0.6507  -0.5870
    -0.4164  -0.3637  -0.2525  -0.2118   0.0809   0.1099   0.2559   0.2748
     0.3223   0.3371   0.3660   0.3834   0.4258   0.4338   0.4588   0.5170
     0.5626   0.6244   0.6492   0.6877   0.7156   0.8169   0.8249   0.8358
     0.8925   0.9083   0.9251   0.9678   0.9776   0.9938   1.0013   1.0250
     1.0390   1.0561   1.0927   1.1087   1.1402   1.1522   1.1829   1.2000
     1.2176   1.2284   1.2418   1.2626   1.2696   1.2825   1.3007   1.3291
     1.3448   1.3575   1.4001   1.4099   1.4456   1.4738   1.4984   1.5311
     1.5454   1.5651   1.5753   1.5943   1.6312   1.6850   1.7894   1.8990

          k =-0.1247-0.3802 0.3868 (299651 PWs)   bands (ev):

   -17.5126 -17.4861 -17.4473 -17.4264 -17.4255 -17.4250 -17.4207 -17.4143
   -14.2932 -14.2864 -14.2845 -14.2810 -14.2775 -14.2765 -14.2729 -14.2708
   -14.2700 -14.2690 -14.2679 -14.2643 -14.2604 -14.2584 -14.2547 -14.2539
   -14.2507 -14.2461 -14.2457 -14.2448 -14.2447 -14.2443 -14.2440 -14.2417
   -14.2411 -14.2360 -14.2354 -14.2348 -14.2345 -14.2331 -14.2328 -14.2313
   -14.2286 -14.2272 -14.2263 -14.2250 -14.2197 -14.2176 -14.2152 -14.2075
   -10.4823 -10.4611 -10.4521 -10.4502 -10.4411 -10.4400 -10.4219 -10.4175
    -9.6128  -9.5533  -9.5404  -9.4797  -9.4593  -9.3995  -9.3777  -9.3333
    -9.2853  -9.2553  -9.2089  -9.2048  -9.1973  -9.1674  -9.1522  -9.1434
    -9.1209  -9.1138  -9.1083  -9.0683  -9.0671  -9.0437  -9.0231  -9.0053
    -6.9756  -6.9509  -6.9454  -6.9425  -6.9398  -6.9274  -6.9161  -6.9125
    -6.9034  -6.8776  -6.8104  -6.7991  -6.7921  -6.7891  -6.7826  -6.7782
    -5.6566  -5.4766  -5.4684  -5.2889  -5.2547  -5.0892  -5.0799  -4.9431
    -4.8309  -4.8124  -4.8042  -4.7976  -4.7899  -4.7806  -4.7642  -4.7456
    -2.7893  -2.7770  -2.7689  -2.7560  -2.7496  -2.7450  -2.7395  -2.7384
    -2.7289  -2.7266  -2.7168  -2.7088  -2.6999  -2.6959  -2.6930  -2.6887
    -0.7933  -0.7393  -0.7290  -0.6755  -0.5331  -0.4599  -0.4355  -0.3883
    -0.3111  -0.2979  -0.2876  -0.2663   0.0624   0.1023   0.1237   0.1461
     0.2126   0.2573   0.2733   0.3391   0.3750   0.4094   0.4278   0.4360
     0.5197   0.5398   0.6112   0.6325   0.7132   0.7309   0.7985   0.8298
     0.8671   0.8800   0.9013   0.9413   0.9610   0.9710   0.9961   1.0101
     1.0312   1.0355   1.0541   1.0603   1.1044   1.1198   1.1351   1.1567
     1.2077   1.2328   1.2474   1.2522   1.2658   1.2824   1.3066   1.3236
     1.3790   1.3868   1.4067   1.4411   1.4527   1.4682   1.4825   1.5000
     1.5145   1.5352   1.5763   1.5914   1.6158   1.6439   1.6653   1.7023

          k =-0.1247 0.3802-0.3868 (299651 PWs)   bands (ev):

   -17.5126 -17.4861 -17.4473 -17.4264 -17.4255 -17.4250 -17.4207 -17.4143
   -14.2932 -14.2864 -14.2845 -14.2810 -14.2775 -14.2765 -14.2729 -14.2708
   -14.2700 -14.2690 -14.2679 -14.2643 -14.2604 -14.2584 -14.2547 -14.2539
   -14.2507 -14.2461 -14.2457 -14.2448 -14.2447 -14.2443 -14.2440 -14.2417
   -14.2411 -14.2360 -14.2354 -14.2348 -14.2345 -14.2331 -14.2328 -14.2313
   -14.2286 -14.2272 -14.2263 -14.2250 -14.2197 -14.2176 -14.2152 -14.2075
   -10.4825 -10.4618 -10.4525 -10.4496 -10.4413 -10.4403 -10.4213 -10.4168
    -9.6213  -9.5579  -9.5304  -9.4720  -9.4433  -9.4006  -9.3896  -9.3482
    -9.2848  -9.2542  -9.2066  -9.2026  -9.1994  -9.1696  -9.1500  -9.1392
    -9.1233  -9.1139  -9.1020  -9.0749  -9.0679  -9.0474  -9.0191  -9.0031
    -6.9756  -6.9504  -6.9450  -6.9432  -6.9400  -6.9272  -6.9168  -6.9127
    -6.9033  -6.8776  -6.8104  -6.7991  -6.7924  -6.7885  -6.7827  -6.7782
    -5.6548  -5.4740  -5.4683  -5.2936  -5.2578  -5.0887  -5.0841  -4.9314
    -4.8328  -4.8175  -4.8013  -4.7969  -4.7888  -4.7825  -4.7627  -4.7473
    -2.7899  -2.7762  -2.7696  -2.7556  -2.7483  -2.7447  -2.7411  -2.7381
    -2.7286  -2.7259  -2.7200  -2.7091  -2.7007  -2.6951  -2.6918  -2.6880
    -0.8111  -0.7529  -0.7227  -0.6707  -0.5237  -0.4513  -0.4247  -0.3784
    -0.3160  -0.2950  -0.2728  -0.2493   0.0478   0.0812   0.1175   0.1445
     0.2043   0.2227   0.2965   0.3245   0.3698   0.4065   0.4278   0.4470
     0.5100   0.5530   0.6233   0.6371   0.6958   0.7279   0.7965   0.8146
     0.8642   0.8966   0.9299   0.9465   0.9728   0.9892   0.9961   1.0060
     1.0237   1.0369   1.0460   1.0551   1.0670   1.1138   1.1338   1.1798
     1.1998   1.2305   1.2432   1.2664   1.2782   1.2878   1.3021   1.3412
     1.3841   1.4025   1.4155   1.4364   1.4515   1.4625   1.4779   1.4865
     1.5145   1.5228   1.5360   1.5663   1.6066   1.6409   1.7004   1.7503

          k = 0.1247-0.3802-0.3868 (299651 PWs)   bands (ev):

   -17.5126 -17.4861 -17.4473 -17.4264 -17.4255 -17.4250 -17.4207 -17.4143
   -14.2932 -14.2864 -14.2845 -14.2810 -14.2775 -14.2765 -14.2729 -14.2708
   -14.2700 -14.2690 -14.2679 -14.2643 -14.2604 -14.2584 -14.2547 -14.2539
   -14.2507 -14.2461 -14.2457 -14.2448 -14.2447 -14.2443 -14.2440 -14.2417
   -14.2411 -14.2360 -14.2354 -14.2348 -14.2345 -14.2331 -14.2328 -14.2313
   -14.2286 -14.2272 -14.2263 -14.2250 -14.2197 -14.2176 -14.2152 -14.2075
   -10.4825 -10.4618 -10.4525 -10.4497 -10.4416 -10.4399 -10.4213 -10.4168
    -9.6224  -9.5572  -9.5273  -9.4753  -9.4440  -9.4007  -9.3889  -9.3469
    -9.2845  -9.2554  -9.2089  -9.2018  -9.1981  -9.1690  -9.1494  -9.1391
    -9.1232  -9.1136  -9.1031  -9.0770  -9.0669  -9.0454  -9.0202  -9.0029
    -6.9756  -6.9503  -6.9450  -6.9433  -6.9400  -6.9272  -6.9162  -6.9126
    -6.9041  -6.8774  -6.8104  -6.7991  -6.7922  -6.7886  -6.7828  -6.7781
    -5.6553  -5.4735  -5.4678  -5.2940  -5.2577  -5.0905  -5.0833  -4.9303
    -4.8327  -4.8175  -4.8014  -4.7970  -4.7888  -4.7820  -4.7630  -4.7476
    -2.7903  -2.7762  -2.7695  -2.7557  -2.7482  -2.7446  -2.7412  -2.7382
    -2.7300  -2.7256  -2.7198  -2.7076  -2.6994  -2.6953  -2.6925  -2.6887
    -0.8111  -0.7526  -0.7249  -0.6705  -0.5207  -0.4450  -0.4209  -0.3790
    -0.3207  -0.2947  -0.2760  -0.2615   0.0513   0.0834   0.1287   0.1446
     0.2053   0.2245   0.2949   0.3139   0.3702   0.4102   0.4290   0.4430
     0.5077   0.5554   0.6247   0.6382   0.6951   0.7270   0.7960   0.8134
     0.8603   0.8966   0.9325   0.9521   0.9698   0.9897   0.9959   1.0063
     1.0227   1.0349   1.0478   1.0548   1.0639   1.1147   1.1374   1.1754
     1.1995   1.2328   1.2501   1.2670   1.2785   1.2862   1.2960   1.3402
     1.3893   1.3958   1.4164   1.4366   1.4518   1.4615   1.4741   1.4914
     1.5095   1.5310   1.5371   1.5650   1.6067   1.6399   1.7010   1.7499

          k =-0.3742-0.1267 0.1289 (299718 PWs)   bands (ev):

   -17.5126 -17.4861 -17.4473 -17.4263 -17.4256 -17.4250 -17.4207 -17.4143
   -14.2932 -14.2881 -14.2849 -14.2813 -14.2783 -14.2767 -14.2748 -14.2717
   -14.2698 -14.2675 -14.2663 -14.2627 -14.2608 -14.2583 -14.2547 -14.2539
   -14.2503 -14.2460 -14.2448 -14.2446 -14.2444 -14.2443 -14.2440 -14.2418
   -14.2411 -14.2360 -14.2354 -14.2348 -14.2346 -14.2331 -14.2327 -14.2313
   -14.2286 -14.2272 -14.2263 -14.2250 -14.2197 -14.2176 -14.2152 -14.2075
   -10.4838 -10.4633 -10.4535 -10.4496 -10.4416 -10.4375 -10.4207 -10.4158
    -9.6458  -9.5878  -9.4885  -9.4809  -9.4156  -9.4031  -9.3315  -9.2947
    -9.2851  -9.2751  -9.2441  -9.2330  -9.1984  -9.1853  -9.1793  -9.1532
    -9.1284  -9.1154  -9.1043  -9.0906  -9.0525  -9.0246  -9.0184  -8.9858
    -6.9705  -6.9532  -6.9495  -6.9426  -6.9392  -6.9261  -6.9176  -6.9115
    -6.9053  -6.8719  -6.8162  -6.8053  -6.8000  -6.7867  -6.7752  -6.7735
    -5.7829  -5.6095  -5.3440  -5.3388  -5.1804  -5.1678  -4.9229  -4.8627
    -4.8323  -4.8066  -4.8045  -4.7992  -4.7873  -4.7710  -4.7679  -4.6779
    -2.7955  -2.7735  -2.7687  -2.7572  -2.7521  -2.7482  -2.7394  -2.7374
    -2.7296  -2.7218  -2.7118  -2.7069  -2.7024  -2.6990  -2.6954  -2.6896
    -0.8613  -0.8191  -0.8072  -0.7608  -0.7460  -0.7082  -0.6302  -0.5980
    -0.4475  -0.3793  -0.2968  -0.2259   0.0887   0.1589   0.2701   0.2830
     0.3128   0.3251   0.3509   0.3629   0.4268   0.4417   0.4584   0.5207
     0.5475   0.6106   0.6184   0.6601   0.7019   0.7852   0.8194   0.8265
     0.8747   0.8928   0.9271   0.9742   0.9842   1.0131   1.0222   1.0384
     1.0592   1.0696   1.0966   1.1055   1.1234   1.1529   1.1980   1.2072
     1.2280   1.2336   1.2450   1.2595   1.2696   1.2833   1.2882   1.3155
     1.3282   1.3501   1.3847   1.4230   1.4523   1.4744   1.5045   1.5459
     1.5625   1.5897   1.5928   1.6035   1.6354   1.6424   1.8792   1.9041

          k =-0.3742 0.1267-0.1289 (299718 PWs)   bands (ev):

   -17.5126 -17.4861 -17.4473 -17.4263 -17.4256 -17.4250 -17.4207 -17.4143
   -14.2932 -14.2881 -14.2849 -14.2813 -14.2783 -14.2767 -14.2748 -14.2717
   -14.2698 -14.2675 -14.2663 -14.2627 -14.2608 -14.2583 -14.2547 -14.2539
   -14.2503 -14.2460 -14.2448 -14.2446 -14.2444 -14.2443 -14.2440 -14.2418
   -14.2411 -14.2360 -14.2354 -14.2348 -14.2346 -14.2331 -14.2327 -14.2313
   -14.2286 -14.2272 -14.2263 -14.2250 -14.2197 -14.2176 -14.2152 -14.2075
   -10.4840 -10.4641 -10.4531 -10.4499 -10.4418 -10.4377 -10.4200 -10.4152
    -9.6579  -9.5728  -9.4854  -9.4633  -9.4331  -9.4137  -9.3287  -9.3000
    -9.2827  -9.2738  -9.2446  -9.2315  -9.2003  -9.1877  -9.1762  -9.1530
    -9.1276  -9.1116  -9.1000  -9.0909  -9.0595  -9.0254  -9.0171  -8.9845
    -6.9704  -6.9530  -6.9492  -6.9428  -6.9391  -6.9261  -6.9178  -6.9120
    -6.9055  -6.8719  -6.8162  -6.8052  -6.8005  -6.7855  -6.7762  -6.7731
    -5.7833  -5.6092  -5.3422  -5.3346  -5.1804  -5.1749  -4.9398  -4.8461
    -4.8319  -4.8118  -4.8018  -4.7974  -4.7814  -4.7697  -4.7641  -4.6867
    -2.7958  -2.7742  -2.7674  -2.7586  -2.7518  -2.7492  -2.7377  -2.7359
    -2.7298  -2.7235  -2.7153  -2.7057  -2.7020  -2.6987  -2.6938  -2.6893
    -0.8697  -0.8279  -0.8102  -0.7565  -0.7452  -0.7073  -0.6348  -0.6029
    -0.4302  -0.3585  -0.2703  -0.2125   0.0783   0.1184   0.2501   0.2697
     0.3186   0.3313   0.3556   0.3706   0.4123   0.4234   0.4425   0.5103
     0.5332   0.6147   0.6323   0.6808   0.7274   0.7834   0.8080   0.8388
     0.8631   0.9111   0.9586   0.9713   0.9917   1.0014   1.0199   1.0373
     1.0597   1.0763   1.0943   1.1116   1.1265   1.1445   1.1948   1.2090
     1.2257   1.2353   1.2442   1.2555   1.2719   1.2757   1.2852   1.3129
     1.3304   1.3543   1.3775   1.4234   1.4378   1.4739   1.4980   1.5473
     1.5687   1.5783   1.5842   1.5981   1.6187   1.6968   1.8568   1.9408

          k = 0.3742-0.1267-0.1289 (299718 PWs)   bands (ev):

   -17.5126 -17.4861 -17.4473 -17.4263 -17.4256 -17.4250 -17.4207 -17.4143
   -14.2932 -14.2881 -14.2849 -14.2813 -14.2783 -14.2767 -14.2748 -14.2717
   -14.2698 -14.2675 -14.2663 -14.2627 -14.2608 -14.2583 -14.2547 -14.2539
   -14.2503 -14.2460 -14.2448 -14.2446 -14.2444 -14.2443 -14.2440 -14.2418
   -14.2411 -14.2360 -14.2354 -14.2348 -14.2346 -14.2331 -14.2327 -14.2313
   -14.2286 -14.2272 -14.2263 -14.2250 -14.2197 -14.2176 -14.2152 -14.2075
   -10.4840 -10.4641 -10.4531 -10.4498 -10.4417 -10.4377 -10.4200 -10.4152
    -9.6577  -9.5736  -9.4859  -9.4625  -9.4334  -9.4118  -9.3314  -9.2984
    -9.2832  -9.2739  -9.2433  -9.2329  -9.2000  -9.1859  -9.1785  -9.1517
    -9.1287  -9.1115  -9.0989  -9.0914  -9.0600  -9.0250  -9.0171  -8.9845
    -6.9705  -6.9529  -6.9493  -6.9428  -6.9391  -6.9261  -6.9173  -6.9119
    -6.9061  -6.8718  -6.8162  -6.8052  -6.8005  -6.7856  -6.7762  -6.7730
    -5.7834  -5.6092  -5.3422  -5.3343  -5.1806  -5.1748  -4.9396  -4.8463
    -4.8319  -4.8118  -4.8019  -4.7975  -4.7814  -4.7697  -4.7643  -4.6865
    -2.7959  -2.7751  -2.7670  -2.7582  -2.7523  -2.7492  -2.7379  -2.7363
    -2.7295  -2.7223  -2.7163  -2.7038  -2.7024  -2.6990  -2.6938  -2.6897
    -0.8666  -0.8317  -0.8079  -0.7561  -0.7465  -0.7092  -0.6351  -0.6035
    -0.4281  -0.3574  -0.2706  -0.2125   0.0777   0.1164   0.2593   0.2662
     0.3171   0.3294   0.3555   0.3710   0.4126   0.4244   0.4469   0.5074
     0.5281   0.6118   0.6383   0.6784   0.7286   0.7833   0.8054   0.8312
     0.8619   0.9165   0.9622   0.9685   0.9992   1.0078   1.0217   1.0341
     1.0546   1.0782   1.0914   1.1119   1.1266   1.1387   1.1947   1.2105
     1.2304   1.2341   1.2411   1.2560   1.2726   1.2780   1.2866   1.3096
     1.3395   1.3506   1.3771   1.4218   1.4384   1.4717   1.4958   1.5480
     1.5663   1.5786   1.5870   1.5987   1.6180   1.6964   1.8569   1.9406

          k =-0.3742-0.1267 0.3868 (299729 PWs)   bands (ev):

   -17.5126 -17.4861 -17.4473 -17.4263 -17.4256 -17.4250 -17.4207 -17.4143
   -14.2922 -14.2870 -14.2830 -14.2818 -14.2790 -14.2782 -14.2742 -14.2715
   -14.2691 -14.2675 -14.2664 -14.2635 -14.2618 -14.2576 -14.2547 -14.2539
   -14.2513 -14.2460 -14.2452 -14.2448 -14.2446 -14.2443 -14.2441 -14.2418
   -14.2411 -14.2360 -14.2354 -14.2348 -14.2345 -14.2331 -14.2328 -14.2313
   -14.2286 -14.2272 -14.2262 -14.2250 -14.2197 -14.2176 -14.2152 -14.2075
   -10.4829 -10.4630 -10.4518 -10.4507 -10.4425 -10.4378 -10.4209 -10.4163
    -9.6113  -9.5550  -9.5488  -9.4891  -9.4528  -9.3986  -9.3834  -9.3413
    -9.2450  -9.2239  -9.2113  -9.1975  -9.1900  -9.1803  -9.1596  -9.1559
    -9.1330  -9.1288  -9.1088  -9.0804  -9.0688  -9.0389  -9.0219  -8.9974
    -6.9758  -6.9502  -6.9457  -6.9426  -6.9389  -6.9271  -6.9163  -6.9128
    -6.9033  -6.8777  -6.8105  -6.7994  -6.7926  -6.7886  -6.7820  -6.7783
    -5.6649  -5.4932  -5.4823  -5.3112  -5.2292  -5.0798  -5.0546  -4.9345
    -4.8307  -4.8075  -4.8030  -4.7955  -4.7928  -4.7797  -4.7669  -4.7460
    -2.7946  -2.7680  -2.7644  -2.7580  -2.7498  -2.7470  -2.7418  -2.7368
    -2.7289  -2.7224  -2.7120  -2.7101  -2.7056  -2.6975  -2.6954  -2.6917
    -0.7856  -0.7415  -0.7240  -0.6734  -0.5264  -0.4515  -0.4237  -0.3992
    -0.3419  -0.3023  -0.2783  -0.2651   0.0575   0.0719   0.1170   0.1520
     0.2144   0.2348   0.2508   0.3196   0.4032   0.4081   0.4247   0.4298
     0.5255   0.5667   0.6160   0.6541   0.6762   0.7146   0.7401   0.7882
     0.8089   0.8692   0.8766   0.9050   0.9214   0.9730   1.0111   1.0312
     1.0379   1.0513   1.0607   1.0756   1.1250   1.1423   1.1664   1.1716
     1.2198   1.2500   1.2583   1.2676   1.2792   1.3011   1.3155   1.3301
     1.3575   1.3790   1.3957   1.4191   1.4479   1.4729   1.4786   1.5284
     1.5396   1.5597   1.5773   1.5908   1.6275   1.6516   1.6989   1.7285

          k =-0.3742 0.1267-0.3868 (299729 PWs)   bands (ev):

   -17.5126 -17.4861 -17.4473 -17.4263 -17.4256 -17.4250 -17.4207 -17.4143
   -14.2922 -14.2870 -14.2830 -14.2818 -14.2790 -14.2782 -14.2742 -14.2715
   -14.2691 -14.2675 -14.2664 -14.2635 -14.2618 -14.2576 -14.2547 -14.2539
   -14.2513 -14.2460 -14.2452 -14.2448 -14.2446 -14.2443 -14.2441 -14.2418
   -14.2411 -14.2360 -14.2354 -14.2348 -14.2345 -14.2331 -14.2328 -14.2313
   -14.2286 -14.2272 -14.2262 -14.2250 -14.2197 -14.2176 -14.2152 -14.2075
   -10.4831 -10.4636 -10.4517 -10.4506 -10.4424 -10.4383 -10.4203 -10.4156
    -9.6219  -9.5552  -9.5397  -9.4824  -9.4388  -9.4048  -9.3862  -9.3563
    -9.2446  -9.2221  -9.2118  -9.2001  -9.1909  -9.1801  -9.1600  -9.1499
    -9.1347  -9.1218  -9.1097  -9.0849  -9.0699  -9.0419  -9.0187  -8.9956
    -6.9759  -6.9497  -6.9454  -6.9431  -6.9393  -6.9269  -6.9167  -6.9129
    -6.9033  -6.8777  -6.8105  -6.7993  -6.7929  -6.7880  -6.7822  -6.7784
    -5.6631  -5.4942  -5.4787  -5.3158  -5.2327  -5.0763  -5.0619  -4.9219
    -4.8325  -4.8131  -4.8010  -4.7940  -4.7909  -4.7819  -4.7653  -4.7480
    -2.7949  -2.7673  -2.7658  -2.7567  -2.7506  -2.7460  -2.7398  -2.7378
    -2.7292  -2.7235  -2.7162  -2.7100  -2.7040  -2.6968  -2.6942  -2.6914
    -0.8046  -0.7406  -0.7344  -0.6702  -0.5078  -0.4385  -0.4128  -0.3824
    -0.3569  -0.2960  -0.2698  -0.2530   0.0451   0.0520   0.1238   0.1417
     0.1907   0.2279   0.2541   0.2984   0.4001   0.4066   0.4300   0.4413
     0.5130   0.5834   0.6323   0.6548   0.6777   0.7065   0.7303   0.7779
     0.8107   0.8593   0.8857   0.9341   0.9459   0.9778   0.9968   1.0161
     1.0311   1.0423   1.0596   1.0821   1.1035   1.1521   1.1661   1.1949
     1.2167   1.2482   1.2639   1.2708   1.2795   1.2935   1.3150   1.3626
     1.3650   1.3732   1.3829   1.4146   1.4580   1.4815   1.4896   1.5156
     1.5238   1.5382   1.5616   1.5774   1.5956   1.6758   1.7129   1.7720

          k = 0.3742-0.1267-0.3868 (299729 PWs)   bands (ev):

   -17.5126 -17.4861 -17.4473 -17.4263 -17.4256 -17.4250 -17.4207 -17.4143
   -14.2922 -14.2870 -14.2830 -14.2818 -14.2790 -14.2782 -14.2742 -14.2715
   -14.2691 -14.2675 -14.2664 -14.2635 -14.2618 -14.2576 -14.2547 -14.2539
   -14.2513 -14.2460 -14.2452 -14.2448 -14.2446 -14.2443 -14.2441 -14.2418
   -14.2411 -14.2360 -14.2354 -14.2348 -14.2345 -14.2331 -14.2328 -14.2313
   -14.2286 -14.2272 -14.2262 -14.2250 -14.2197 -14.2176 -14.2152 -14.2075
   -10.4832 -10.4636 -10.4517 -10.4506 -10.4424 -10.4383 -10.4203 -10.4156
    -9.6212  -9.5566  -9.5410  -9.4803  -9.4361  -9.4059  -9.3891  -9.3553
    -9.2448  -9.2220  -9.2124  -9.1987  -9.1919  -9.1806  -9.1580  -9.1507
    -9.1343  -9.1242  -9.1066  -9.0869  -9.0702  -9.0409  -9.0189  -8.9955
    -6.9759  -6.9496  -6.9455  -6.9430  -6.9394  -6.9269  -6.9161  -6.9129
    -6.9041  -6.8775  -6.8105  -6.7994  -6.7928  -6.7881  -6.7823  -6.7782
    -5.6633  -5.4948  -5.4780  -5.3159  -5.2322  -5.0765  -5.0622  -4.9217
    -4.8326  -4.8131  -4.8010  -4.7943  -4.7910  -4.7815  -4.7654  -4.7478
    -2.7950  -2.7693  -2.7647  -2.7559  -2.7509  -2.7462  -2.7406  -2.7375
    -2.7304  -2.7207  -2.7179  -2.7085  -2.7036  -2.6968  -2.6942  -2.6922
    -0.8043  -0.7405  -0.7318  -0.6708  -0.5168  -0.4410  -0.4140  -0.3846
    -0.3472  -0.2953  -0.2643  -0.2525   0.0414   0.0563   0.1176   0.1439
     0.1880   0.2267   0.2550   0.3019   0.3998   0.4070   0.4289   0.4416
     0.5176   0.5791   0.6318   0.6439   0.6788   0.7077   0.7364   0.7791
     0.8090   0.8601   0.8896   0.9297   0.9477   0.9781   0.9976   1.0147
     1.0300   1.0479   1.0605   1.0847   1.0955   1.1524   1.1677   1.1978
     1.2147   1.2511   1.2601   1.2718   1.2779   1.2931   1.3175   1.3557
     1.3669   1.3731   1.3883   1.4120   1.4591   1.4789   1.4917   1.5156
     1.5216   1.5364   1.5657   1.5749   1.5966   1.6765   1.7127   1.7718

          k =-0.3742-0.3802 0.1289 (299664 PWs)   bands (ev):

   -17.5126 -17.4861 -17.4473 -17.4263 -17.4256 -17.4250 -17.4207 -17.4143
   -14.2932 -14.2874 -14.2849 -14.2809 -14.2780 -14.2757 -14.2739 -14.2718
   -14.2691 -14.2683 -14.2674 -14.2629 -14.2612 -14.2593 -14.2547 -14.2539
   -14.2504 -14.2460 -14.2450 -14.2448 -14.2446 -14.2443 -14.2440 -14.2418
   -14.2411 -14.2360 -14.2354 -14.2348 -14.2346 -14.2331 -14.2328 -14.2313
   -14.2286 -14.2273 -14.2263 -14.2250 -14.2197 -14.2176 -14.2152 -14.2075
   -10.4830 -10.4634 -10.4507 -10.4493 -10.4420 -10.4397 -10.4213 -10.4166
    -9.6047  -9.5681  -9.5475  -9.4561  -9.4517  -9.3977  -9.3804  -9.3289
    -9.2849  -9.2742  -9.2474  -9.2385  -9.1862  -9.1460  -9.1389  -9.1232
    -9.1146  -9.1077  -9.0939  -9.0834  -9.0568  -9.0432  -9.0369  -9.0099
    -6.9701  -6.9534  -6.9497  -6.9423  -6.9394  -6.9261  -6.9183  -6.9112
    -6.9041  -6.8715  -6.8157  -6.8052  -6.7994  -6.7873  -6.7762  -6.7742
    -5.6660  -5.5028  -5.4742  -5.3171  -5.2388  -5.0671  -5.0395  -4.9447
    -4.8335  -4.8135  -4.8006  -4.7966  -4.7922  -4.7755  -4.7645  -4.7375
    -2.7881  -2.7734  -2.7649  -2.7550  -2.7481  -2.7448  -2.7397  -2.7386
    -2.7305  -2.7275  -2.7165  -2.7125  -2.7049  -2.6995  -2.6933  -2.6889
    -0.8310  -0.7918  -0.7563  -0.7062  -0.4970  -0.4693  -0.4454  -0.3375
    -0.3241  -0.2994  -0.2703  -0.2299   0.0662   0.1317   0.1472   0.2185
     0.2813   0.2992   0.3198   0.3260   0.3482   0.3748   0.3937   0.4417
[...]
    -0.3265  -0.3051  -0.2948  -0.2059   0.0663   0.0795   0.1089   0.1246
     0.1875   0.2090   0.2265   0.2330   0.2791   0.2894   0.3033   0.3634
     0.5911   0.6038   0.6235   0.6390   0.6798   0.7045   0.7338   0.7520
     0.7695   0.7922   0.8372   0.8661   0.8721   0.8985   0.9094   0.9234
     0.9546   0.9745   0.9881   1.0098   1.0429   1.0545   1.0825   1.0883
     1.2403   1.2680   1.2764   1.2873   1.2979   1.3145   1.3348   1.3573
     1.3990   1.4148   1.4311   1.4372   1.4522   1.4701   1.4764   1.5020
     1.5119   1.5350   1.5469   1.5607   1.5719   1.5868   1.5954   1.5992

          k =-0.3739 0.3806-0.3868 (299710 PWs)   bands (ev):

   -17.5052 -17.4858 -17.4446 -17.4251 -17.4245 -17.4227 -17.4184 -17.4131
   -14.2913 -14.2848 -14.2821 -14.2801 -14.2780 -14.2747 -14.2731 -14.2691
   -14.2686 -14.2673 -14.2663 -14.2632 -14.2625 -14.2593 -14.2539 -14.2535
   -14.2519 -14.2458 -14.2449 -14.2444 -14.2432 -14.2430 -14.2424 -14.2420
   -14.2393 -14.2356 -14.2344 -14.2338 -14.2333 -14.2326 -14.2308 -14.2303
   -14.2293 -14.2284 -14.2257 -14.2238 -14.2206 -14.2185 -14.2154 -14.2076
   -10.4863 -10.4655 -10.4509 -10.4500 -10.4448 -10.4362 -10.4198 -10.4136
    -9.5919  -9.5279  -9.5045  -9.4903  -9.4593  -9.4509  -9.4364  -9.4018
    -9.2452  -9.2135  -9.1966  -9.1869  -9.1784  -9.1520  -9.1459  -9.1326
    -9.1185  -9.0958  -9.0933  -9.0888  -9.0699  -9.0604  -9.0371  -9.0124
    -6.9705  -6.9479  -6.9402  -6.9373  -6.9347  -6.9171  -6.9118  -6.9063
    -6.8957  -6.8726  -6.8101  -6.7994  -6.7917  -6.7894  -6.7805  -6.7766
    -5.5460  -5.3865  -5.3700  -5.3627  -5.2165  -5.2065  -5.1971  -5.0345
    -4.8354  -4.8218  -4.8001  -4.7938  -4.7917  -4.7867  -4.7616  -4.7550
    -2.7892  -2.7740  -2.7716  -2.7513  -2.7476  -2.7456  -2.7413  -2.7369
    -2.7292  -2.7248  -2.7180  -2.7107  -2.7012  -2.6948  -2.6925  -2.6869
    -0.6140  -0.5388  -0.4797  -0.4492  -0.4214  -0.3685  -0.3381  -0.3264
    -0.2850  -0.2685  -0.2028  -0.1735  -0.0024   0.0232   0.0645   0.0853
     0.1210   0.2069   0.2165   0.2260   0.3062   0.3318   0.3443   0.3545
     0.5560   0.6163   0.6331   0.6700   0.6791   0.7056   0.7361   0.7434
     0.7741   0.8066   0.8383   0.8494   0.8853   0.9005   0.9030   0.9228
     0.9576   0.9713   0.9936   1.0053   1.0265   1.0494   1.0931   1.1194
     1.2363   1.2650   1.2795   1.2914   1.2975   1.3107   1.3315   1.3760
     1.4048   1.4162   1.4255   1.4410   1.4543   1.4601   1.4681   1.4812
     1.5010   1.5211   1.5328   1.5378   1.5478   1.5723   1.6436   1.6651

          k = 0.3739-0.3806-0.3868 (299710 PWs)   bands (ev):

   -17.5052 -17.4858 -17.4446 -17.4251 -17.4245 -17.4227 -17.4184 -17.4131
   -14.2913 -14.2848 -14.2821 -14.2801 -14.2780 -14.2747 -14.2731 -14.2691
   -14.2686 -14.2673 -14.2663 -14.2632 -14.2625 -14.2593 -14.2539 -14.2535
   -14.2519 -14.2458 -14.2449 -14.2444 -14.2432 -14.2430 -14.2424 -14.2420
   -14.2393 -14.2356 -14.2344 -14.2338 -14.2333 -14.2326 -14.2308 -14.2303
   -14.2293 -14.2284 -14.2257 -14.2238 -14.2206 -14.2185 -14.2154 -14.2076
   -10.4863 -10.4655 -10.4511 -10.4499 -10.4447 -10.4361 -10.4198 -10.4136
    -9.5922  -9.5280  -9.5048  -9.4882  -9.4600  -9.4499  -9.4391  -9.4006
    -9.2453  -9.2133  -9.1976  -9.1889  -9.1761  -9.1522  -9.1457  -9.1288
    -9.1207  -9.0994  -9.0943  -9.0857  -9.0720  -9.0575  -9.0376  -9.0125
    -6.9706  -6.9478  -6.9403  -6.9368  -6.9352  -6.9171  -6.9111  -6.9061
    -6.8965  -6.8723  -6.8101  -6.7994  -6.7919  -6.7892  -6.7807  -6.7765
    -5.5461  -5.3872  -5.3696  -5.3619  -5.2170  -5.2063  -5.1976  -5.0341
    -4.8355  -4.8218  -4.8005  -4.7935  -4.7915  -4.7867  -4.7618  -4.7550
    -2.7888  -2.7742  -2.7721  -2.7524  -2.7489  -2.7439  -2.7409  -2.7366
    -2.7291  -2.7242  -2.7182  -2.7104  -2.7006  -2.6946  -2.6933  -2.6872
    -0.6106  -0.5421  -0.4782  -0.4570  -0.4235  -0.3651  -0.3348  -0.3217
    -0.2857  -0.2721  -0.2008  -0.1742   0.0014   0.0283   0.0614   0.0814
     0.1212   0.2035   0.2179   0.2258   0.3071   0.3308   0.3430   0.3543
     0.5573   0.6128   0.6345   0.6702   0.6828   0.7046   0.7356   0.7422
     0.7690   0.8045   0.8416   0.8534   0.8835   0.8973   0.9130   0.9214
     0.9546   0.9722   0.9891   1.0092   1.0279   1.0504   1.0919   1.1194
     1.2361   1.2666   1.2789   1.2912   1.2981   1.3064   1.3349   1.3761
     1.4053   1.4147   1.4266   1.4394   1.4542   1.4569   1.4668   1.4833
     1.5034   1.5218   1.5330   1.5386   1.5460   1.5729   1.6429   1.6651

     highest occupied level (ev):     2.0720

!    total energy              =  -16491.15713624 Ry
     Harris-Foulkes estimate   =  -16491.15713624 Ry
     estimated scf accuracy    <          9.0E-10 Ry

     total all-electron energy =   -677247.826401 Ry

     The total energy is the sum of the following terms:

     one-electron contribution =    -826.37029097 Ry
     hartree contribution      =     599.13525212 Ry
     xc contribution           =    -755.73338704 Ry
     ewald contribution        =   -1153.35943143 Ry
     DFT-D3 Dispersion         =      -0.62615096 Ry
     one-center paw contrib.   =  -14354.20312795 Ry

     convergence has been achieved in   7 iterations

     Forces acting on atoms (cartesian axes, Ry/au):

     atom    1 type  1   force =     0.00008277    0.00006088   -0.00006807
     atom    2 type  1   force =     0.00000893    0.00030834    0.00001766
     atom    3 type  1   force =    -0.00003056   -0.00002555    0.00016513
     atom    4 type  1   force =     0.00006445   -0.00022600   -0.00002900
     atom    5 type  1   force =     0.00019874    0.00003760    0.00013802
     atom    6 type  1   force =     0.00016325   -0.00011734    0.00004342
     atom    7 type  1   force =     0.00006151   -0.00011209    0.00013143
     atom    8 type  1   force =    -0.00000076    0.00013326    0.00014761
     atom    9 type  2   force =    -0.00014029    0.00003874    0.00019894
     atom   10 type  2   force =    -0.00010407    0.00006255    0.00003585
     atom   11 type  2   force =     0.00008074    0.00000474   -0.00003984
     atom   12 type  2   force =    -0.00008052   -0.00005806   -0.00021991
     atom   13 type  2   force =    -0.00014906    0.00010060    0.00000764
     atom   14 type  2   force =     0.00028469   -0.00008908   -0.00000769
     atom   15 type  2   force =    -0.00010112   -0.00013796   -0.00010607
     atom   16 type  2   force =     0.00012709   -0.00003544   -0.00007496
     atom   17 type  2   force =     0.00017271   -0.00012832    0.00002485
     atom   18 type  2   force =     0.00015493   -0.00003324    0.00010968
     atom   19 type  2   force =     0.00014420    0.00000545    0.00012137
     atom   20 type  2   force =    -0.00003960    0.00020392   -0.00008482
     atom   21 type  2   force =    -0.00010733   -0.00009187   -0.00004607
     atom   22 type  2   force =     0.00005994   -0.00002177    0.00000322
     atom   23 type  2   force =    -0.00008036    0.00002067    0.00001735
     atom   24 type  2   force =    -0.00014546   -0.00011747    0.00003168
     atom   25 type  2   force =    -0.00008254    0.00003777   -0.00002016
     atom   26 type  2   force =    -0.00002648    0.00007782   -0.00010173
     atom   27 type  2   force =     0.00008539   -0.00010956    0.00003750
     atom   28 type  2   force =     0.00010696    0.00015081    0.00013313
     atom   29 type  2   force =     0.00002485    0.00014445   -0.00017078
     atom   30 type  2   force =    -0.00005197   -0.00021294   -0.00004489
     atom   31 type  2   force =    -0.00004766    0.00005824   -0.00002601
     atom   32 type  2   force =    -0.00013910   -0.00023646   -0.00006947
     atom   33 type  3   force =    -0.00026398   -0.00021285   -0.00000034
     atom   34 type  3   force =     0.00005185    0.00002667    0.00001428
     atom   35 type  3   force =    -0.00026976   -0.00020626   -0.00000463
     atom   36 type  3   force =    -0.00007994   -0.00012018   -0.00003250
     atom   37 type  3   force =    -0.00013596   -0.00014027   -0.00000059
     atom   38 type  3   force =    -0.00025832   -0.00015997   -0.00000080
     atom   39 type  3   force =    -0.00006827   -0.00008853   -0.00002637
     atom   40 type  3   force =     0.00006926   -0.00006920   -0.00000288
     atom   41 type  4   force =     0.00001290   -0.00024186   -0.00001224
     atom   42 type  4   force =     0.00011186    0.00007982   -0.00000943
     atom   43 type  4   force =    -0.00035560   -0.00003887   -0.00003191
     atom   44 type  4   force =    -0.00010712   -0.00004579    0.00006738
     atom   45 type  4   force =    -0.00005628   -0.00004481   -0.00001655
     atom   46 type  4   force =    -0.00010988   -0.00004292   -0.00004482
     atom   47 type  4   force =    -0.00002850   -0.00003415   -0.00002262
     atom   48 type  4   force =    -0.00000055   -0.00002187    0.00000026
     atom   49 type  5   force =     0.00012067    0.00008711   -0.00019221
     atom   50 type  5   force =    -0.00003470    0.00017964    0.00006270
     atom   51 type  5   force =     0.00016328   -0.00006378    0.00006135
     atom   52 type  5   force =    -0.00014003    0.00012955    0.00017651
     atom   53 type  5   force =    -0.00004225    0.00008448   -0.00018336
     atom   54 type  5   force =     0.00025448   -0.00006972    0.00004793
     atom   55 type  5   force =     0.00002347    0.00012970    0.00005751
     atom   56 type  5   force =     0.00003329   -0.00002723   -0.00000822
     atom   57 type  5   force =     0.00003410    0.00013861   -0.00004676
     atom   58 type  5   force =    -0.00014165   -0.00006811   -0.00005433
     atom   59 type  5   force =    -0.00001335   -0.00011839    0.00003447
     atom   60 type  5   force =    -0.00013073   -0.00010763    0.00006458
     atom   61 type  5   force =     0.00016728   -0.00014632   -0.00016074
     atom   62 type  5   force =    -0.00007863    0.00020460   -0.00006697
     atom   63 type  5   force =     0.00017789   -0.00003270    0.00015496
     atom   64 type  5   force =     0.00011560    0.00005155    0.00013543
     atom   65 type  5   force =    -0.00014413    0.00035156    0.00013191
     atom   66 type  5   force =     0.00030115   -0.00005252   -0.00013478
     atom   67 type  5   force =    -0.00002182   -0.00003289   -0.00010224
     atom   68 type  5   force =    -0.00004387    0.00014542   -0.00011296
     atom   69 type  5   force =     0.00011864    0.00005524    0.00001108
     atom   70 type  5   force =    -0.00006845   -0.00004469    0.00014002
     atom   71 type  5   force =    -0.00004228   -0.00005030   -0.00000403
     atom   72 type  5   force =    -0.00003539   -0.00001193   -0.00007929
     atom   73 type  5   force =     0.00020095    0.00011295   -0.00011034
     atom   74 type  5   force =     0.00001706    0.00018501    0.00001072
     atom   75 type  5   force =     0.00021672    0.00007869    0.00005994
     atom   76 type  5   force =     0.00003680   -0.00008240    0.00008827
     atom   77 type  5   force =    -0.00009217    0.00003749    0.00000268
     atom   78 type  5   force =    -0.00001743   -0.00007435   -0.00011711
     atom   79 type  5   force =    -0.00000776    0.00010825    0.00001680
     atom   80 type  5   force =     0.00004957    0.00017414   -0.00000525
     atom   81 type  5   force =     0.00017036   -0.00005658   -0.00002420
     atom   82 type  5   force =    -0.00007483    0.00007831    0.00018454
     atom   83 type  5   force =    -0.00010205    0.00011928   -0.00015323
     atom   84 type  5   force =     0.00018955   -0.00012696    0.00003766
     atom   85 type  5   force =    -0.00001752   -0.00001047   -0.00002719
     atom   86 type  5   force =    -0.00009519    0.00011775   -0.00016061
     atom   87 type  5   force =     0.00005199   -0.00002600    0.00003098
     atom   88 type  5   force =    -0.00007766    0.00004636    0.00009318
     atom   89 type  5   force =    -0.00005126    0.00003850   -0.00008668
     atom   90 type  5   force =    -0.00002497   -0.00000290    0.00014260
     atom   91 type  5   force =     0.00020240    0.00002390   -0.00003644
     atom   92 type  5   force =     0.00000722    0.00013335    0.00002575
     atom   93 type  5   force =     0.00000435    0.00000411    0.00006152
     atom   94 type  5   force =     0.00001996    0.00009851    0.00003628
     atom   95 type  5   force =    -0.00001716   -0.00006820   -0.00011231
     atom   96 type  5   force =    -0.00016747    0.00002835   -0.00002135

     Total force =     0.001888     Total SCF correction =     0.000125


     Computing stress (Cartesian axis) and pressure

          total   stress  (Ry/bohr**3)                   (kbar)     P=   -0.02
   0.00000009   0.00000552   0.00000106          0.01      0.81      0.16
   0.00000552  -0.00000019  -0.00000064          0.81     -0.03     -0.09
   0.00000106  -0.00000064  -0.00000025          0.16     -0.09     -0.04


     number of scf cycles    =  38
     number of bfgs steps    =  37

     enthalpy old            =  -16491.1571303088 Ry
     enthalpy new            =  -16491.1571362418 Ry

     CASE: enthalpy_new < enthalpy_old

     new trust radius        =       0.0124003600 bohr
     new conv_thr            =       0.0000000010 Ry

     new unit-cell volume =  13498.77832 a.u.^3 (  2000.31254 Ang^3 )
     density =      4.12236 g/cm^3

CELL_PARAMETERS (alat= 24.15259000)
   1.002930021   0.000000000   0.000000000
   0.000000000   0.985260445   0.000000000
   0.000000000   0.000000000   0.969575558

ATOMIC_POSITIONS (crystal)
Pb       0.001648711   0.002233547  -0.000880793
Pb      -0.000137055   0.003148212   0.499761437
Pb       0.003905421   0.504389198  -0.001140389
Pb       0.001213779   0.505164423   0.501552131
Pb       0.501641143   0.001463829   0.000551007
Pb       0.500399601   0.002740728   0.500818304
Pb       0.506335255   0.503194888   0.002781111
Pb       0.504897936   0.503294878   0.502030473
I        0.252982106   0.016608718  -0.033838485
I        0.028181587   0.252729981   0.042601250
I        0.040063501  -0.048160830   0.249204971
I        0.251212613   0.024036012   0.532052254
I        0.022024227   0.254856261   0.455281172
I       -0.040829577   0.054358349   0.749516988
I        0.255529246   0.531760259   0.027746393
I        0.015685306   0.752712501  -0.053419432
I       -0.032223124   0.550677797   0.250024862
I        0.253476448   0.532109012   0.478453962
I        0.015887381   0.754985561   0.546469203
I        0.033653395   0.445524953   0.750251901
I        0.752910955   0.025401326   0.032760574
I        0.518118216   0.251751949  -0.041582423
I        0.461452051   0.052643086   0.250762926
I        0.751058966   0.026654245   0.467367461
I        0.517325390   0.252407096   0.546689871
I        0.533587234  -0.051093117   0.750879678
I        0.755454295   0.520450403  -0.030444642
I        0.528383060   0.752034031   0.048229764
I        0.538795127   0.450930268   0.252808314
I        0.753750252   0.522700371   0.533460784
I        0.525973582   0.752619064   0.456365899
I        0.473023558   0.547738789   0.752908838
C        0.276509396   0.292449611   0.253387043
C        0.285159792   0.292645032   0.753391278
C        0.290056236   0.793890744   0.251303768
C        0.269929697   0.776601180   0.741752872
C        0.788555851   0.292166000   0.246984955
C        0.771157852   0.287904955   0.750135500
C        0.784932610   0.787134399   0.251774122
C        0.783900139   0.799198050   0.748202828
N        0.214171158   0.192417424   0.252007837
N        0.202321884   0.209340169   0.752194875
N        0.203251262   0.714774907   0.252540349
N        0.216235577   0.671675147   0.750347096
N        0.701651593   0.213285347   0.249353753
N        0.708856202   0.187843570   0.751767144
N        0.719254790   0.689293157   0.253175255
N        0.704009803   0.713043209   0.752384332
H        0.165818499   0.189852664   0.184475441
H        0.165632353   0.188256814   0.319240233
H        0.262991869   0.126695072   0.251343370
H        0.326114941   0.294532285   0.181594502
H        0.324824501   0.293383455   0.326148181
H        0.222900645   0.360052180   0.253406095
H        0.208384655   0.161094089   0.684018083
H        0.128743305   0.243459676   0.752575208
H        0.208302020   0.159346992   0.819023308
H        0.276232660   0.342543865   0.681711638
H        0.361546544   0.254056799   0.752933480
H        0.276119130   0.340677591   0.826371384
H        0.206487075   0.665104348   0.185387605
H        0.131552748   0.753044965   0.252587738
H        0.207034335   0.666271974   0.320519999
H        0.282902246   0.842449120   0.178449563
H        0.364552428   0.751596913   0.251477034
H        0.283466676   0.844047552   0.323080108
H        0.217933122   0.630952241   0.677499450
H        0.138977808   0.681333169   0.773058199
H        0.251108837   0.623776586   0.807970110
H        0.231330994   0.823252161   0.678870864
H        0.351719224   0.762964888   0.720869443
H        0.264120615   0.817394438   0.819511508
H        0.704309997   0.163403674   0.182228169
H        0.629960681   0.251409899   0.250287238
H        0.706437993   0.164496826   0.317222528
H        0.780403089   0.341208891   0.174564642
H        0.862916289   0.249648931   0.245490133
H        0.783571638   0.341865724   0.319220532
H        0.659987301   0.183783236   0.684858395
H        0.661092080   0.185009673   0.819607297
H        0.757800003   0.122237062   0.751951409
H        0.819299908   0.288742622   0.677273611
H        0.820830726   0.290124580   0.821846409
H        0.717579034   0.355505082   0.750101204
H        0.669697373   0.687448871   0.186597526
H        0.671819195   0.687555371   0.321336025
H        0.765925948   0.622051467   0.252465074
H        0.833055226   0.786419967   0.178894665
H        0.834753087   0.787379075   0.323438981
H        0.733778466   0.856634376   0.251905003
H        0.709337894   0.663185431   0.685477332
H        0.629421055   0.744654502   0.754243137
H        0.713265320   0.665076260   0.820266815
H        0.770792129   0.846568498   0.675442299
H        0.861473712   0.763277104   0.746135613
H        0.775446205   0.849030349   0.819978033



     Writing output data file MAPbI_vcrelax_PAW13.save/
     NEW-OLD atomic charge density approx. for the potential
     extrapolated charge  400.00012, renormalised to  400.00000

     total cpu time spent up to now is   598341.7 secs

     Self-consistent Calculation

     iteration #  1     ecut=   120.00 Ry     beta= 0.70
     Davidson diagonalization with overlap
     ethr =  1.00E-06,  avg # of iterations =  3.0

     Threshold (ethr) on eigenvalues was too large:
     Diagonalizing with lowered threshold

     Davidson diagonalization with overlap
     ethr =  4.06E-08,  avg # of iterations =  2.2

     total cpu time spent up to now is   601580.9 secs

     total energy              =  -16491.15710627 Ry
     Harris-Foulkes estimate   =  -16491.15649322 Ry
     estimated scf accuracy    <       0.00016081 Ry

     iteration #  2     ecut=   120.00 Ry     beta= 0.70
     Davidson diagonalization with overlap
     ethr =  4.02E-08,  avg # of iterations =  2.0

     total cpu time spent up to now is   602912.4 secs

     total energy              =  -16491.15713941 Ry
     Harris-Foulkes estimate   =  -16491.15713111 Ry
     estimated scf accuracy    <       0.00001460 Ry

     iteration #  3     ecut=   120.00 Ry     beta= 0.70
     Davidson diagonalization with overlap
     ethr =  3.65E-09,  avg # of iterations =  2.9

     total cpu time spent up to now is   604278.9 secs

     total energy              =  -16491.15714354 Ry
     Harris-Foulkes estimate   =  -16491.15714152 Ry
     estimated scf accuracy    <       0.00000554 Ry

     iteration #  4     ecut=   120.00 Ry     beta= 0.70
     Davidson diagonalization with overlap
