
     Program PWSCF v.6.4 starts on 25Mar2020 at 12:55:35 

     This program is part of the open-source Quantum ESPRESSO suite
     for quantum simulation of materials; please cite
         "P. Giannozzi et al., J. Phys.:Condens. Matter 21 395502 (2009);
         "P. Giannozzi et al., J. Phys.:Condens. Matter 29 465901 (2017);
          URL http://www.quantum-espresso.org", 
     in publications or presentations arising from this work. More details at
     http://www.quantum-espresso.org/quote

     Parallel version (MPI), running on    32 processors

     MPI processes distributed on     1 nodes
     K-points division:     npool     =       4
     R & G space division:  proc/nbgrp/npool/nimage =       8
     Waiting for input...
     Reading input from standard input
     Message from routine read_cards :
     DEPRECATED: no units specified in CELL_PARAMETERS card

     Current dimensions of program PWSCF are:
     Max number of different atomic species (ntypx) = 10
     Max number of k-points (npk) =  40000
     Max angular momentum in pseudopotentials (lmaxx) =  3
               file Pb.pbe-dn-kjpaw_psl.1.0.0.UPF: wavefunction(s)  6S 6P 5D renormalized
               file I.pbe-n-kjpaw_psl.1.0.0.UPF: wavefunction(s)  5S renormalized
               file C.pbe-n-kjpaw_psl.1.0.0.UPF: wavefunction(s)  2S 2P renormalized
               file N.pbe-n-kjpaw_psl.1.0.0.UPF: wavefunction(s)  2S renormalized
               file H.pbe-kjpaw_psl.1.0.0.UPF: wavefunction(s)  1S renormalized

     --------------------------------------------
     Parameters for DFT-D3 Dispersion Correction:
     --------------------------------------------
       Reference C6 values for interpolation: 

         atom   Coordination number   C6
         H          0.912             6.05
         H          0.000            15.18
         C          0.000            98.23
         C          0.987            86.49
         C          1.998            58.72
         C          2.999            51.56
         C          3.984            36.41
         N          0.000            50.54
         N          0.994            44.25
         N          2.014            39.35
         N          2.990            31.16
         I          0.000           703.93
         I          0.997           717.00
         Pb         0.000          1477.63
         Pb         0.938          1266.00
         Pb         1.936          1088.91
         Pb         2.908          1048.37
         Pb         3.910           910.57

       Values used:

         atom   Coordination number  R0_AB[au]  C6      C8
         Pb         4.795            4.041    910.57 144158.43
         Pb         4.807            4.041    910.57 144158.40
         Pb         4.829            4.041    910.57 144158.35
         Pb         4.845            4.041    910.57 144158.32
         Pb         4.837            4.041    910.57 144158.34
         Pb         4.838            4.041    910.57 144158.34
         Pb         4.882            4.041    910.57 144158.27
         Pb         4.883            4.041    910.57 144158.27
         I          1.941            3.532    717.00  65855.99
         I          1.951            3.532    717.00  65856.00
         I          1.942            3.532    717.00  65855.99
         I          1.941            3.532    717.00  65855.99
         I          1.951            3.532    717.00  65856.00
         I          1.963            3.532    717.00  65856.00
         I          1.895            3.532    717.00  65855.99
         I          1.937            3.532    717.00  65855.99
         I          1.958            3.532    717.00  65856.00
         I          1.930            3.532    717.00  65855.99
         I          1.960            3.532    717.00  65856.00
         I          1.990            3.532    717.00  65856.00
         I          1.925            3.532    717.00  65855.99
         I          1.995            3.532    717.00  65856.00
         I          1.974            3.532    717.00  65856.00
         I          1.939            3.532    717.00  65855.99
         I          1.999            3.532    717.00  65856.00
         I          1.955            3.532    717.00  65856.00
         I          1.981            3.532    717.00  65856.00
         I          1.990            3.532    717.00  65856.00
         I          1.992            3.532    717.00  65856.00
         I          1.982            3.532    717.00  65856.00
         I          2.001            3.532    717.00  65856.00
         I          2.019            3.532    717.00  65856.00
         C          4.038            2.750     36.59   1058.25
         C          4.041            2.750     36.59   1058.15
         C          4.041            2.750     36.59   1058.14
         C          4.035            2.750     36.59   1058.38
         C          4.040            2.750     36.59   1058.18
         C          4.046            2.750     36.58   1057.96
         C          4.043            2.750     36.58   1058.07
         C          4.046            2.750     36.58   1057.97
         N          4.063            2.478     31.16    687.49
         N          4.059            2.478     31.16    687.49
         N          4.057            2.478     31.16    687.49
         N          4.065            2.478     31.16    687.49
         N          4.061            2.478     31.16    687.49
         N          4.059            2.478     31.16    687.49
         N          4.061            2.478     31.16    687.49
         N          4.059            2.478     31.16    687.49
         H          1.081            2.062      6.12     74.03
         H          1.080            2.062      6.13     74.04
         H          1.040            2.062      6.15     74.33
         H          1.008            2.062      6.17     74.63
         H          1.008            2.062      6.17     74.64
         H          1.006            2.062      6.18     74.65
         H          1.077            2.062      6.13     74.06
         H          1.032            2.062      6.15     74.40
         H          1.071            2.062      6.13     74.10
         H          1.008            2.062      6.17     74.63
         H          1.011            2.062      6.17     74.60
         H          1.008            2.062      6.17     74.63
         H          1.063            2.062      6.13     74.15
         H          1.041            2.062      6.15     74.33
         H          1.065            2.062      6.13     74.14
         H          1.009            2.062      6.17     74.63
         H          1.010            2.062      6.17     74.62
         H          1.009            2.062      6.17     74.63
         H          1.034            2.062      6.15     74.39
         H          1.038            2.062      6.15     74.35
         H          1.034            2.062      6.15     74.38
         H          1.013            2.062      6.17     74.59
         H          1.013            2.062      6.17     74.58
         H          1.013            2.062      6.17     74.58
         H          1.076            2.062      6.13     74.07
         H          1.042            2.062      6.15     74.31
         H          1.076            2.062      6.13     74.07
         H          1.009            2.062      6.17     74.63
         H          1.009            2.062      6.17     74.62
         H          1.008            2.062      6.17     74.63
         H          1.082            2.062      6.12     74.03
         H          1.074            2.062      6.13     74.08
         H          1.030            2.062      6.16     74.42
         H          1.009            2.062      6.17     74.63
         H          1.009            2.062      6.17     74.62
         H          1.010            2.062      6.17     74.62
         H          1.085            2.062      6.12     74.01
         H          1.080            2.062      6.12     74.04
         H          1.034            2.062      6.15     74.38
         H          1.008            2.062      6.17     74.63
         H          1.009            2.062      6.17     74.63
         H          1.009            2.062      6.17     74.63
         H          1.068            2.062      6.13     74.12
         H          1.031            2.062      6.16     74.41
         H          1.063            2.062      6.13     74.15
         H          1.009            2.062      6.17     74.63
         H          1.014            2.062      6.17     74.57
         H          1.009            2.062      6.17     74.63

         Molecular C6 ( Ry / a.u.^6 ) =   1196399.08


     Subspace diagonalization in iterative solution of the eigenvalue problem:
     a serial algorithm will be used


     Parallelization info
     --------------------
     sticks:   dense  smooth     PW     G-vecs:    dense   smooth      PW
     Min        2753    2753    709               300069   300069   39281
     Max        2754    2754    710               300072   300072   39284
     Sum       22027   22027   5677              2400565  2400565  314255



     bravais-lattice index     =            0
     lattice parameter (alat)  =      24.1526  a.u.
     unit-cell volume          =   13517.9251 (a.u.)^3
     number of atoms/cell      =           96
     number of atomic types    =            5
     number of electrons       =       400.00
     number of Kohn-Sham states=          200
     kinetic-energy cutoff     =     120.0000  Ry
     charge density cutoff     =     480.0000  Ry
     convergence threshold     =      1.0E-07
     mixing beta               =       0.7000
     number of iterations used =            8  plain     mixing
     Exchange-correlation      = SLA PW PBX PBC ( 1  4  3  4 0 0)
     nstep                     =          150


     celldm(1)=  24.152590  celldm(2)=   0.000000  celldm(3)=   0.000000
     celldm(4)=   0.000000  celldm(5)=   0.000000  celldm(6)=   0.000000

     crystal axes: (cart. coord. in units of alat)
               a(1) = (   0.999924   0.000000   0.000000 )  
               a(2) = (   0.000000   0.988430   0.000000 )  
               a(3) = (   0.000000   0.000000   0.970747 )  

     reciprocal axes: (cart. coord. in units 2 pi/alat)
               b(1) = (  1.000076  0.000000  0.000000 )  
               b(2) = (  0.000000  1.011705  0.000000 )  
               b(3) = (  0.000000  0.000000  1.030134 )  


     PseudoPot. # 1 for Pb read from file:
     ../Pseudopotential/Pb.pbe-dn-kjpaw_psl.1.0.0.UPF
     MD5 check sum: 684fc8fbce61a260853528575e4d9ab7
     Pseudo is Projector augmented-wave + core cor, Zval = 14.0
     Generated using "atomic" code by A. Dal Corso v.6.3
     Shape of augmentation charge: PSQ
     Using radial grid of 1281 points,  6 beta functions with: 
                l(1) =   0
                l(2) =   0
                l(3) =   1
                l(4) =   1
                l(5) =   2
                l(6) =   2
     Q(r) pseudized with 0 coefficients 


     PseudoPot. # 2 for I  read from file:
     ../Pseudopotential/I.pbe-n-kjpaw_psl.1.0.0.UPF
     MD5 check sum: cd3d296c3308a581e1559a0c8a554cb5
     Pseudo is Projector augmented-wave + core cor, Zval =  7.0
     Generated using "atomic" code by A. Dal Corso v.6.3
     Shape of augmentation charge: PSQ
     Using radial grid of 1247 points,  6 beta functions with: 
                l(1) =   0
                l(2) =   0
                l(3) =   1
                l(4) =   1
                l(5) =   2
                l(6) =   2
     Q(r) pseudized with 0 coefficients 


     PseudoPot. # 3 for C  read from file:
     ../Pseudopotential/C.pbe-n-kjpaw_psl.1.0.0.UPF
     MD5 check sum: 5f16ad9a65e90284d1d834d4ab3b0f7d
     Pseudo is Projector augmented-wave + core cor, Zval =  4.0
     Generated using "atomic" code by A. Dal Corso v.6.3
     Shape of augmentation charge: PSQ
     Using radial grid of 1073 points,  4 beta functions with: 
                l(1) =   0
                l(2) =   0
                l(3) =   1
                l(4) =   1
     Q(r) pseudized with 0 coefficients 


     PseudoPot. # 4 for N  read from file:
     ../Pseudopotential/N.pbe-n-kjpaw_psl.1.0.0.UPF
     MD5 check sum: 14c48229446f9f2d411169a3abcbc3fa
     Pseudo is Projector augmented-wave + core cor, Zval =  5.0
     Generated using "atomic" code by A. Dal Corso v.6.3
     Shape of augmentation charge: PSQ
     Using radial grid of 1085 points,  4 beta functions with: 
                l(1) =   0
                l(2) =   0
                l(3) =   1
                l(4) =   1
     Q(r) pseudized with 0 coefficients 


     PseudoPot. # 5 for H  read from file:
     ../Pseudopotential/H.pbe-kjpaw_psl.1.0.0.UPF
     MD5 check sum: d81a744832360e4a8af0b0b5b123bc2a
     Pseudo is Projector augmented-wave, Zval =  1.0
     Generated using "atomic" code by A. Dal Corso v.6.3MaX
     Shape of augmentation charge: PSQ
     Using radial grid of  929 points,  2 beta functions with: 
                l(1) =   0
                l(2) =   0
     Q(r) pseudized with 0 coefficients 


     atomic species   valence    mass     pseudopotential
        Pb            14.00   207.97600     Pb( 1.00)
        I              7.00   126.90400     I ( 1.00)
        C              4.00    12.00000     C ( 1.00)
        N              5.00    14.00300     N ( 1.00)
        H              1.00     1.00700     H ( 1.00)

     No symmetry found



   Cartesian axes

     site n.     atom                  positions (alat units)
         1           Pb  tau(   1) = (   0.0008765   0.0013509  -0.0001610  )
         2           Pb  tau(   2) = (   0.0001763   0.0020349   0.4865064  )
         3           Pb  tau(   3) = (   0.0025349   0.4981351   0.0006523  )
         4           Pb  tau(   4) = (   0.0009157   0.4991918   0.4877288  )
         5           Pb  tau(   5) = (   0.5017566   0.0019442   0.0017803  )
         6           Pb  tau(   6) = (   0.5011123   0.0023268   0.4870932  )
         7           Pb  tau(   7) = (   0.5052639   0.4967333   0.0031740  )
         8           Pb  tau(   8) = (   0.5040052   0.4977985   0.4871928  )
         9           I   tau(   9) = (   0.2519546   0.0130381  -0.0325855  )
        10           I   tau(  10) = (   0.0300557   0.2500302   0.0384855  )
        11           I   tau(  11) = (   0.0418798  -0.0444625   0.2426557  )
        12           I   tau(  12) = (   0.2515832   0.0238726   0.5172749  )
        13           I   tau(  13) = (   0.0208065   0.2518968   0.4461401  )
        14           I   tau(  14) = (  -0.0442659   0.0480450   0.7283676  )
        15           I   tau(  15) = (   0.2549270   0.5280887   0.0269129  )
        16           I   tau(  16) = (   0.0106626   0.7438698  -0.0494177  )
        17           I   tau(  17) = (  -0.0346958   0.5421459   0.2434786  )
        18           I   tau(  18) = (   0.2534228   0.5230270   0.4639247  )
        19           I   tau(  19) = (   0.0209602   0.7462297   0.5282166  )
        20           I   tau(  20) = (   0.0345567   0.4447552   0.7292836  )
        21           I   tau(  21) = (   0.7516166   0.0309185   0.0335999  )
        22           I   tau(  22) = (   0.5102740   0.2495741  -0.0383257  )
        23           I   tau(  23) = (   0.4595975   0.0474114   0.2438540  )
        24           I   tau(  24) = (   0.7512123   0.0225085   0.4511164  )
        25           I   tau(  25) = (   0.5192730   0.2504691   0.5243221  )
        26           I   tau(  26) = (   0.5373757  -0.0456858   0.7293581  )
        27           I   tau(  27) = (   0.7542034   0.5067717  -0.0313286  )
        28           I   tau(  28) = (   0.5317885   0.7438512   0.0400728  )
        29           I   tau(  29) = (   0.5405093   0.4508031   0.2450461  )
        30           I   tau(  30) = (   0.7536370   0.5180100   0.5179188  )
        31           I   tau(  31) = (   0.5228293   0.7446334   0.4454050  )
        32           I   tau(  32) = (   0.4716321   0.5337412   0.7303395  )
        33           C   tau(  33) = (   0.2833283   0.2871779   0.2427860  )
        34           C   tau(  34) = (   0.2817983   0.2857687   0.7263436  )
        35           C   tau(  35) = (   0.2894113   0.7821699   0.2421051  )
        36           C   tau(  36) = (   0.2759884   0.7668558   0.7214074  )
        37           C   tau(  37) = (   0.7871013   0.2880501   0.2414726  )
        38           C   tau(  38) = (   0.7816313   0.2836011   0.7257667  )
        39           C   tau(  39) = (   0.7904046   0.7792622   0.2416697  )
        40           C   tau(  40) = (   0.7829680   0.7835049   0.7227871  )
        41           N   tau(  41) = (   0.2125690   0.1944003   0.2462713  )
        42           N   tau(  42) = (   0.1987392   0.2038112   0.7315026  )
        43           N   tau(  43) = (   0.2014483   0.7053660   0.2470643  )
        44           N   tau(  44) = (   0.2166610   0.6666725   0.7318961  )
        45           N   tau(  45) = (   0.6983600   0.2122657   0.2458336  )
        46           N   tau(  46) = (   0.7045524   0.1960244   0.7309697  )
        47           N   tau(  47) = (   0.7161315   0.6892314   0.2462744  )
        48           N   tau(  48) = (   0.7011613   0.7006965   0.7328072  )
        49           H   tau(  49) = (   0.1635803   0.1929778   0.1810240  )
        50           H   tau(  50) = (   0.1639607   0.1971610   0.3117745  )
        51           H   tau(  51) = (   0.2556860   0.1257596   0.2484664  )
        52           H   tau(  52) = (   0.3328991   0.2815723   0.1732528  )
        53           H   tau(  53) = (   0.3322264   0.2872992   0.3129803  )
        54           H   tau(  54) = (   0.2356754   0.3581875   0.2396395  )
        55           H   tau(  55) = (   0.2022817   0.1545406   0.6665281  )
        56           H   tau(  56) = (   0.1249627   0.2371323   0.7340373  )
        57           H   tau(  57) = (   0.2074810   0.1562312   0.7972136  )
        58           H   tau(  58) = (   0.2694340   0.3326746   0.6557918  )
        59           H   tau(  59) = (   0.3582190   0.2474860   0.7232573  )
        60           H   tau(  60) = (   0.2762715   0.3350679   0.7960979  )
        61           H   tau(  61) = (   0.2018183   0.6564069   0.1819008  )
        62           H   tau(  62) = (   0.1301932   0.7442096   0.2494599  )
        63           H   tau(  63) = (   0.2070271   0.6578183   0.3131016  )
        64           H   tau(  64) = (   0.2798836   0.8299864   0.1717739  )
        65           H   tau(  65) = (   0.3637702   0.7399766   0.2391380  )
        66           H   tau(  66) = (   0.2864098   0.8318595   0.3116902  )
        67           H   tau(  67) = (   0.2189542   0.6238144   0.6630442  )
        68           H   tau(  68) = (   0.1389497   0.6806456   0.7505356  )
        69           H   tau(  69) = (   0.2470108   0.6201429   0.7910732  )
        70           H   tau(  70) = (   0.2419874   0.8120148   0.6571021  )
        71           H   tau(  71) = (   0.3578637   0.7484408   0.7048440  )
        72           H   tau(  72) = (   0.2697717   0.8104947   0.7948081  )
        73           H   tau(  73) = (   0.6990458   0.1630130   0.1808087  )
        74           H   tau(  74) = (   0.6273898   0.2514922   0.2479133  )
        75           H   tau(  75) = (   0.7035044   0.1642449   0.3116372  )
        76           H   tau(  76) = (   0.7785017   0.3361863   0.1712004  )
        77           H   tau(  77) = (   0.8607713   0.2446898   0.2385762  )
        78           H   tau(  78) = (   0.7847478   0.3373303   0.3113853  )
        79           H   tau(  79) = (   0.6550968   0.1973916   0.6660769  )
        80           H   tau(  80) = (   0.6567099   0.2021981   0.7967785  )
        81           H   tau(  81) = (   0.7424465   0.1245050   0.7332265  )
        82           H   tau(  82) = (   0.8290922   0.2740942   0.6552235  )
        83           H   tau(  83) = (   0.8319459   0.2805688   0.7948516  )
        84           H   tau(  84) = (   0.7391244   0.3578019   0.7231654  )
        85           H   tau(  85) = (   0.6666921   0.6896420   0.1813308  )
        86           H   tau(  86) = (   0.6680238   0.6936727   0.3120347  )
        87           H   tau(  87) = (   0.7563379   0.6189506   0.2480548  )
        88           H   tau(  88) = (   0.8384403   0.7713477   0.1713059  )
        89           H   tau(  89) = (   0.8404503   0.7777089   0.3110649  )
        90           H   tau(  90) = (   0.7454738   0.8520443   0.2389110  )
        91           H   tau(  91) = (   0.7027051   0.6503367   0.6686890  )
        92           H   tau(  92) = (   0.6272116   0.7334432   0.7374333  )
        93           H   tau(  93) = (   0.7126534   0.6544667   0.7989999  )
        94           H   tau(  94) = (   0.7671596   0.8288788   0.6519327  )
        95           H   tau(  95) = (   0.8596781   0.7461043   0.7173273  )
        96           H   tau(  96) = (   0.7796731   0.8341249   0.7917009  )

     number of k points=    32
                       cart. coord. in units 2pi/alat
        k(    1) = (   0.1250096   0.1264632   0.1287668), wk =   0.0625000
        k(    2) = (   0.1250096   0.1264632   0.3863004), wk =   0.0625000
        k(    3) = (   0.1250096   0.3793895   0.1287668), wk =   0.0625000
        k(    4) = (   0.1250096   0.3793895   0.3863004), wk =   0.0625000
        k(    5) = (   0.3750287   0.1264632   0.1287668), wk =   0.0625000
        k(    6) = (   0.3750287   0.1264632   0.3863004), wk =   0.0625000
        k(    7) = (   0.3750287   0.3793895   0.1287668), wk =   0.0625000
        k(    8) = (   0.3750287   0.3793895   0.3863004), wk =   0.0625000
        k(    9) = (  -0.1250096  -0.1264632   0.1287668), wk =   0.0625000
        k(   10) = (  -0.1250096   0.1264632  -0.1287668), wk =   0.0625000
        k(   11) = (   0.1250096  -0.1264632  -0.1287668), wk =   0.0625000
        k(   12) = (  -0.1250096  -0.1264632   0.3863004), wk =   0.0625000
        k(   13) = (  -0.1250096   0.1264632  -0.3863004), wk =   0.0625000
        k(   14) = (   0.1250096  -0.1264632  -0.3863004), wk =   0.0625000
        k(   15) = (  -0.1250096  -0.3793895   0.1287668), wk =   0.0625000
        k(   16) = (  -0.1250096   0.3793895  -0.1287668), wk =   0.0625000
        k(   17) = (   0.1250096  -0.3793895  -0.1287668), wk =   0.0625000
        k(   18) = (  -0.1250096  -0.3793895   0.3863004), wk =   0.0625000
        k(   19) = (  -0.1250096   0.3793895  -0.3863004), wk =   0.0625000
        k(   20) = (   0.1250096  -0.3793895  -0.3863004), wk =   0.0625000
        k(   21) = (  -0.3750287  -0.1264632   0.1287668), wk =   0.0625000
        k(   22) = (  -0.3750287   0.1264632  -0.1287668), wk =   0.0625000
        k(   23) = (   0.3750287  -0.1264632  -0.1287668), wk =   0.0625000
        k(   24) = (  -0.3750287  -0.1264632   0.3863004), wk =   0.0625000
        k(   25) = (  -0.3750287   0.1264632  -0.3863004), wk =   0.0625000
        k(   26) = (   0.3750287  -0.1264632  -0.3863004), wk =   0.0625000
        k(   27) = (  -0.3750287  -0.3793895   0.1287668), wk =   0.0625000
        k(   28) = (  -0.3750287   0.3793895  -0.1287668), wk =   0.0625000
        k(   29) = (   0.3750287  -0.3793895  -0.1287668), wk =   0.0625000
        k(   30) = (  -0.3750287  -0.3793895   0.3863004), wk =   0.0625000
        k(   31) = (  -0.3750287   0.3793895  -0.3863004), wk =   0.0625000
        k(   32) = (   0.3750287  -0.3793895  -0.3863004), wk =   0.0625000

     Dense  grid:  2400565 G-vectors     FFT dimensions: ( 180, 180, 180)

     Estimated max dynamical RAM per process >       3.10 GB

     Estimated total dynamical RAM >      99.17 GB

     Initial potential from superposition of free atoms

     starting charge  399.97850, renormalised to  400.00000
     Starting wfcs are  280 randomized atomic wfcs
     Checking if some PAW data can be deallocated... 

     total cpu time spent up to now is     1064.7 secs

     Self-consistent Calculation

     iteration #  1     ecut=   120.00 Ry     beta= 0.70
     Davidson diagonalization with overlap
     ethr =  1.00E-02,  avg # of iterations =  2.0

     total cpu time spent up to now is     3023.3 secs

     total energy              =  -16489.36900794 Ry
     Harris-Foulkes estimate   =  -16492.76945994 Ry
     estimated scf accuracy    <       5.70903968 Ry

     iteration #  2     ecut=   120.00 Ry     beta= 0.70
     Davidson diagonalization with overlap
     ethr =  1.43E-03,  avg # of iterations =  3.0

     total cpu time spent up to now is     5774.6 secs

     total energy              =  -16490.61044897 Ry
     Harris-Foulkes estimate   =  -16491.84035230 Ry
     estimated scf accuracy    <       2.18585194 Ry

     iteration #  3     ecut=   120.00 Ry     beta= 0.70
     Davidson diagonalization with overlap
     ethr =  5.46E-04,  avg # of iterations =  3.0

     total cpu time spent up to now is     8005.8 secs

     total energy              =  -16491.12701385 Ry
     Harris-Foulkes estimate   =  -16491.17063522 Ry
     estimated scf accuracy    <       0.10080775 Ry

     iteration #  4     ecut=   120.00 Ry     beta= 0.70
     Davidson diagonalization with overlap
     ethr =  2.52E-05,  avg # of iterations =  3.0

     total cpu time spent up to now is    10671.8 secs

     total energy              =  -16491.15133898 Ry
     Harris-Foulkes estimate   =  -16491.16166864 Ry
     estimated scf accuracy    <       0.01894516 Ry

     iteration #  5     ecut=   120.00 Ry     beta= 0.70
     Davidson diagonalization with overlap
     ethr =  4.74E-06,  avg # of iterations =  2.0

     total cpu time spent up to now is    13108.5 secs

     total energy              =  -16491.15524084 Ry
     Harris-Foulkes estimate   =  -16491.15609086 Ry
     estimated scf accuracy    <       0.00151136 Ry

     iteration #  6     ecut=   120.00 Ry     beta= 0.70
     Davidson diagonalization with overlap
     ethr =  3.78E-07,  avg # of iterations =  3.0

     total cpu time spent up to now is    15948.7 secs

     total energy              =  -16491.15566259 Ry
     Harris-Foulkes estimate   =  -16491.15612462 Ry
     estimated scf accuracy    <       0.00109218 Ry

     iteration #  7     ecut=   120.00 Ry     beta= 0.70
     Davidson diagonalization with overlap
     ethr =  2.73E-07,  avg # of iterations =  2.3

     total cpu time spent up to now is    18029.0 secs

     total energy              =  -16491.15588527 Ry
     Harris-Foulkes estimate   =  -16491.15590018 Ry
     estimated scf accuracy    <       0.00003992 Ry

     iteration #  8     ecut=   120.00 Ry     beta= 0.70
     Davidson diagonalization with overlap
     ethr =  9.98E-09,  avg # of iterations =  3.0

     total cpu time spent up to now is    20729.7 secs

     total energy              =  -16491.15589897 Ry
     Harris-Foulkes estimate   =  -16491.15590259 Ry
     estimated scf accuracy    <       0.00000835 Ry

     iteration #  9     ecut=   120.00 Ry     beta= 0.70
     Davidson diagonalization with overlap
     ethr =  2.09E-09,  avg # of iterations =  3.0

     total cpu time spent up to now is    22944.6 secs

     total energy              =  -16491.15590084 Ry
     Harris-Foulkes estimate   =  -16491.15590147 Ry
     estimated scf accuracy    <       0.00000131 Ry

     iteration # 10     ecut=   120.00 Ry     beta= 0.70
     Davidson diagonalization with overlap
     ethr =  3.27E-10,  avg # of iterations =  3.6

     total cpu time spent up to now is    25252.8 secs

     total energy              =  -16491.15590118 Ry
     Harris-Foulkes estimate   =  -16491.15590130 Ry
     estimated scf accuracy    <       0.00000024 Ry

     iteration # 11     ecut=   120.00 Ry     beta= 0.70
     Davidson diagonalization with overlap
     ethr =  6.02E-11,  avg # of iterations =  3.0

     total cpu time spent up to now is    27399.5 secs

     End of self-consistent calculation

          k = 0.1250 0.1265 0.1288 (300046 PWs)   bands (ev):

   -17.5396 -17.5008 -17.4725 -17.4503 -17.4438 -17.4384 -17.4316 -17.4309
   -14.3009 -14.2961 -14.2917 -14.2863 -14.2831 -14.2781 -14.2744 -14.2705
   -14.2687 -14.2683 -14.2675 -14.2608 -14.2606 -14.2590 -14.2581 -14.2562
   -14.2539 -14.2525 -14.2511 -14.2454 -14.2453 -14.2451 -14.2431 -14.2428
   -14.2401 -14.2395 -14.2348 -14.2345 -14.2335 -14.2317 -14.2307 -14.2297
   -14.2277 -14.2254 -14.2244 -14.2240 -14.2173 -14.2124 -14.2113 -14.2026
   -10.4991 -10.4847 -10.4729 -10.4690 -10.4653 -10.4529 -10.4462 -10.4406
    -9.7005  -9.5348  -9.5168  -9.5103  -9.3669  -9.3487  -9.3348  -9.3059
    -9.2839  -9.2663  -9.2555  -9.2466  -9.2193  -9.2157  -9.2054  -9.1747
    -9.1694  -9.1543  -9.1270  -9.0842  -9.0382  -9.0133  -9.0054  -8.9795
    -6.9964  -6.9738  -6.9617  -6.9545  -6.9529  -6.9482  -6.9348  -6.9297
    -6.9220  -6.8916  -6.8397  -6.8122  -6.8100  -6.7930  -6.7859  -6.7778
    -5.9051  -5.4809  -5.4535  -5.4486  -5.0575  -5.0383  -5.0104  -4.8605
    -4.8438  -4.8330  -4.8284  -4.8215  -4.8105  -4.8052  -4.7963  -4.5754
    -2.8171  -2.7899  -2.7826  -2.7787  -2.7671  -2.7623  -2.7515  -2.7496
    -2.7469  -2.7413  -2.7299  -2.7249  -2.7162  -2.7103  -2.7030  -2.6993
    -0.8988  -0.8556  -0.8417  -0.8068  -0.7723  -0.7496  -0.7429  -0.7277
    -0.6795  -0.6259  -0.5928  -0.5524   0.2151   0.2848   0.2928   0.3078
     0.4009   0.4128   0.4272   0.4711   0.4876   0.5594   0.5711   0.5811
     0.6031   0.7168   0.7343   0.7777   0.7934   0.8157   0.8665   0.9093
     0.9153   0.9384   0.9471   0.9633   0.9765   0.9936   1.0107   1.0262
     1.0393   1.0649   1.0976   1.1095   1.1212   1.1452   1.1639   1.1754
     1.2041   1.2104   1.2204   1.2326   1.2390   1.2567   1.2706   1.2969
     1.3100   1.3336   1.3502   1.4182   1.4604   1.4718   1.4966   1.5615
     1.5996   1.6187   1.6586   1.6726   1.7158   1.7925   1.8498   2.0513

          k = 0.1250 0.1265 0.3863 (300086 PWs)   bands (ev):

   -17.5396 -17.5008 -17.4725 -17.4503 -17.4438 -17.4384 -17.4316 -17.4309
   -14.2992 -14.2950 -14.2924 -14.2881 -14.2811 -14.2788 -14.2742 -14.2696
   -14.2686 -14.2681 -14.2673 -14.2632 -14.2607 -14.2590 -14.2578 -14.2555
   -14.2539 -14.2525 -14.2511 -14.2460 -14.2453 -14.2451 -14.2431 -14.2428
   -14.2409 -14.2395 -14.2348 -14.2345 -14.2335 -14.2317 -14.2307 -14.2297
   -14.2277 -14.2253 -14.2244 -14.2240 -14.2173 -14.2124 -14.2113 -14.2026
   -10.4978 -10.4844 -10.4738 -10.4680 -10.4651 -10.4541 -10.4463 -10.4412
    -9.6657  -9.5999  -9.4840  -9.4788  -9.4271  -9.4179  -9.3211  -9.3024
    -9.2883  -9.2676  -9.2392  -9.2317  -9.2068  -9.1959  -9.1821  -9.1670
    -9.1511  -9.1214  -9.1169  -9.0943  -9.0639  -9.0411  -9.0064  -8.9880
    -6.9995  -6.9679  -6.9612  -6.9539  -6.9525  -6.9501  -6.9342  -6.9322
    -6.9204  -6.8963  -6.8361  -6.8081  -6.8022  -6.7948  -6.7894  -6.7831
    -5.7828  -5.5948  -5.3643  -5.3367  -5.1822  -5.1553  -4.9668  -4.8751
    -4.8482  -4.8362  -4.8301  -4.8214  -4.8098  -4.7993  -4.7859  -4.7002
    -2.8155  -2.7845  -2.7812  -2.7773  -2.7624  -2.7584  -2.7546  -2.7524
    -2.7449  -2.7385  -2.7318  -2.7257  -2.7231  -2.7116  -2.7029  -2.7013
    -0.8250  -0.8086  -0.7775  -0.7402  -0.7150  -0.7091  -0.6518  -0.6479
    -0.4941  -0.3999  -0.3769  -0.2625   0.0470   0.1304   0.1440   0.2345
     0.3256   0.3416   0.3793   0.3990   0.4260   0.4500   0.4589   0.4942
     0.5072   0.5488   0.7392   0.7511   0.7769   0.8033   0.8651   0.8889
     0.9024   0.9172   0.9403   0.9612   0.9904   1.0109   1.0332   1.0422
     1.0448   1.0716   1.0787   1.0995   1.1105   1.1280   1.1352   1.1638
     1.1876   1.2057   1.2215   1.2319   1.2479   1.2573   1.2735   1.3002
     1.3404   1.3515   1.3774   1.4092   1.4265   1.4489   1.4664   1.5349
     1.5856   1.6088   1.6349   1.6590   1.6626   1.6776   1.7525   1.8497

          k = 0.1250 0.3794 0.1288 (300031 PWs)   bands (ev):

   -17.5396 -17.5008 -17.4724 -17.4503 -17.4438 -17.4384 -17.4316 -17.4309
   -14.3009 -14.2956 -14.2914 -14.2857 -14.2830 -14.2779 -14.2737 -14.2707
   -14.2692 -14.2685 -14.2674 -14.2610 -14.2607 -14.2590 -14.2582 -14.2569
   -14.2539 -14.2525 -14.2511 -14.2455 -14.2453 -14.2451 -14.2431 -14.2428
   -14.2406 -14.2394 -14.2348 -14.2345 -14.2335 -14.2317 -14.2307 -14.2297
   -14.2277 -14.2254 -14.2244 -14.2240 -14.2173 -14.2124 -14.2113 -14.2026
   -10.4977 -10.4836 -10.4724 -10.4681 -10.4648 -10.4542 -10.4470 -10.4434
    -9.6630  -9.5758  -9.5037  -9.4937  -9.4215  -9.3946  -9.3441  -9.3054
    -9.2889  -9.2737  -9.2568  -9.2369  -9.2185  -9.1957  -9.1785  -9.1655
    -9.1505  -9.1033  -9.0943  -9.0806  -9.0586  -9.0346  -9.0130  -9.0058
    -6.9964  -6.9733  -6.9615  -6.9543  -6.9523  -6.9486  -6.9345  -6.9311
    -6.9215  -6.8912  -6.8392  -6.8125  -6.8100  -6.7924  -6.7874  -6.7783
    -5.7862  -5.5944  -5.3695  -5.3385  -5.1921  -5.1511  -4.9483  -4.8787
    -4.8507  -4.8330  -4.8246  -4.8160  -4.8120  -4.8054  -4.7866  -4.6908
    -2.8105  -2.7893  -2.7802  -2.7734  -2.7636  -2.7616  -2.7556  -2.7524
    -2.7466  -2.7411  -2.7344  -2.7254  -2.7222  -2.7112  -2.7030  -2.6992
    -0.8807  -0.8473  -0.7912  -0.7806  -0.7578  -0.7294  -0.6657  -0.5791
    -0.4523  -0.3873  -0.3000  -0.2287   0.0876   0.1534   0.2577   0.2762
     0.3194   0.3330   0.3459   0.3627   0.4374   0.4503   0.4618   0.5347
     0.5453   0.6117   0.6302   0.6484   0.7225   0.8069   0.8225   0.8354
     0.8835   0.9104   0.9219   0.9539   0.9773   0.9926   1.0042   1.0217
     1.0278   1.0442   1.0823   1.1064   1.1342   1.1462   1.1787   1.1999
     1.2094   1.2232   1.2354   1.2459   1.2537   1.2799   1.2999   1.3174
     1.3328   1.3415   1.3926   1.4023   1.4590   1.4783   1.4970   1.5201
     1.5546   1.5718   1.5803   1.5918   1.6189   1.6536   1.8179   1.8695

          k = 0.1250 0.3794 0.3863 (300041 PWs)   bands (ev):

   -17.5396 -17.5008 -17.4724 -17.4503 -17.4438 -17.4384 -17.4317 -17.4309
   -14.2992 -14.2945 -14.2922 -14.2874 -14.2810 -14.2787 -14.2733 -14.2693
   -14.2690 -14.2685 -14.2676 -14.2635 -14.2607 -14.2590 -14.2580 -14.2561
   -14.2539 -14.2525 -14.2511 -14.2461 -14.2453 -14.2451 -14.2431 -14.2428
   -14.2414 -14.2394 -14.2348 -14.2345 -14.2335 -14.2317 -14.2307 -14.2297
   -14.2277 -14.2253 -14.2244 -14.2240 -14.2173 -14.2124 -14.2113 -14.2026
   -10.4969 -10.4822 -10.4738 -10.4683 -10.4641 -10.4524 -10.4488 -10.4443
    -9.6306  -9.5674  -9.5425  -9.4878  -9.4581  -9.4036  -9.3699  -9.3332
    -9.2931  -9.2745  -9.2146  -9.2052  -9.2007  -9.1701  -9.1645  -9.1491
    -9.1264  -9.1212  -9.1057  -9.0792  -9.0752  -9.0429  -9.0307  -9.0117
    -6.9996  -6.9673  -6.9611  -6.9539  -6.9521  -6.9504  -6.9346  -6.9327
    -6.9196  -6.8963  -6.8360  -6.8080  -6.8022  -6.7947  -6.7899  -6.7833
    -5.6670  -5.4828  -5.4760  -5.2958  -5.2562  -5.0921  -5.0797  -4.9461
    -4.8501  -4.8343  -4.8231  -4.8176  -4.8118  -4.8022  -4.7944  -4.7671
    -2.8093  -2.7920  -2.7834  -2.7712  -2.7630  -2.7606  -2.7531  -2.7508
    -2.7463  -2.7394  -2.7352  -2.7237  -2.7209  -2.7110  -2.7024  -2.7014
    -0.8186  -0.7607  -0.7352  -0.6809  -0.5451  -0.4501  -0.4423  -0.3957
    -0.3355  -0.3103  -0.2888  -0.2758   0.0551   0.1081   0.1341   0.1485
     0.2086   0.2510   0.2597   0.3239   0.3677   0.3997   0.4231   0.4295
     0.5036   0.5443   0.6043   0.6280   0.6956   0.7328   0.7832   0.8237
     0.8557   0.8768   0.8961   0.9357   0.9564   0.9701   0.9845   1.0066
     1.0229   1.0389   1.0530   1.0646   1.0980   1.1113   1.1371   1.1507
     1.2025   1.2258   1.2437   1.2529   1.2550   1.2852   1.3079   1.3252
     1.3680   1.3776   1.3995   1.4153   1.4436   1.4600   1.4833   1.4913
     1.5033   1.5439   1.5681   1.5792   1.6067   1.6415   1.6596   1.7000

          k = 0.3750 0.1265 0.1288 (300140 PWs)   bands (ev):

   -17.5396 -17.5008 -17.4725 -17.4503 -17.4439 -17.4384 -17.4315 -17.4310
   -14.3004 -14.2957 -14.2905 -14.2862 -14.2841 -14.2791 -14.2745 -14.2703
   -14.2682 -14.2680 -14.2667 -14.2607 -14.2604 -14.2594 -14.2590 -14.2564
   -14.2539 -14.2525 -14.2511 -14.2460 -14.2453 -14.2451 -14.2431 -14.2428
   -14.2401 -14.2395 -14.2348 -14.2345 -14.2335 -14.2317 -14.2307 -14.2297
   -14.2277 -14.2254 -14.2244 -14.2240 -14.2173 -14.2124 -14.2113 -14.2026
   -10.4988 -10.4839 -10.4721 -10.4684 -10.4638 -10.4539 -10.4481 -10.4419
    -9.6610  -9.5863  -9.5015  -9.4874  -9.4278  -9.4012  -9.3411  -9.3020
    -9.2929  -9.2660  -9.2457  -9.2196  -9.2124  -9.2016  -9.1927  -9.1570
    -9.1341  -9.1149  -9.1097  -9.1021  -9.0492  -9.0338  -9.0326  -8.9847
    -6.9964  -6.9736  -6.9614  -6.9535  -6.9525  -6.9485  -6.9341  -6.9310
    -6.9219  -6.8917  -6.8398  -6.8126  -6.8098  -6.7911  -6.7859  -6.7799
    -5.7920  -5.6128  -5.3500  -5.3438  -5.1847  -5.1675  -4.9313  -4.8761
    -4.8525  -4.8287  -4.8254  -4.8192  -4.8080  -4.8004  -4.7912  -4.6862
    -2.8137  -2.7895  -2.7821  -2.7728  -2.7664  -2.7613  -2.7549  -2.7494
    -2.7460  -2.7360  -2.7304  -2.7245  -2.7194  -2.7150  -2.7058  -2.7031
    -0.8818  -0.8397  -0.8057  -0.7697  -0.7593  -0.7058  -0.6513  -0.6016
    -0.4662  -0.3841  -0.3140  -0.2297   0.0846   0.1607   0.2558   0.2750
     0.3093   0.3243   0.3466   0.3595   0.4232   0.4373   0.4549   0.5257
     0.5345   0.6037   0.6261   0.6556   0.7078   0.7827   0.8090   0.8218
     0.8762   0.8857   0.9258   0.9734   0.9832   1.0046   1.0210   1.0364
     1.0474   1.0564   1.0899   1.1018   1.1149   1.1470   1.1846   1.1916
     1.2162   1.2288   1.2382   1.2480   1.2679   1.2833   1.2913   1.3057
     1.3173   1.3348   1.3740   1.4255   1.4342   1.4825   1.4928   1.5456
     1.5658   1.5725   1.5938   1.6058   1.6278   1.6425   1.8693   1.9002

          k = 0.3750 0.1265 0.3863 (300108 PWs)   bands (ev):

   -17.5396 -17.5008 -17.4725 -17.4503 -17.4439 -17.4384 -17.4315 -17.4310
   -14.2986 -14.2948 -14.2913 -14.2881 -14.2822 -14.2797 -14.2742 -14.2696
   -14.2683 -14.2672 -14.2667 -14.2628 -14.2607 -14.2594 -14.2590 -14.2555
   -14.2539 -14.2525 -14.2511 -14.2466 -14.2453 -14.2451 -14.2431 -14.2428
   -14.2409 -14.2395 -14.2348 -14.2345 -14.2335 -14.2317 -14.2307 -14.2297
   -14.2277 -14.2253 -14.2244 -14.2241 -14.2173 -14.2124 -14.2113 -14.2026
   -10.4974 -10.4841 -10.4727 -10.4670 -10.4641 -10.4542 -10.4485 -10.4427
    -9.6282  -9.5642  -9.5519  -9.4937  -9.4577  -9.4021  -9.3791  -9.3446
    -9.2553  -9.2368  -9.2319  -9.2102  -9.1957  -9.1722  -9.1651  -9.1529
    -9.1340  -9.1264  -9.1158  -9.0846  -9.0741  -9.0526  -9.0287  -9.0007
    -6.9995  -6.9676  -6.9609  -6.9536  -6.9521  -6.9503  -6.9341  -6.9329
    -6.9202  -6.8962  -6.8362  -6.8082  -6.8026  -6.7937  -6.7897  -6.7836
    -5.6724  -5.4951  -5.4875  -5.3120  -5.2372  -5.0846  -5.0613  -4.9409
    -4.8503  -4.8297  -4.8243  -4.8168  -4.8108  -4.8027  -4.7969  -4.7662
    -2.8132  -2.7835  -2.7778  -2.7747  -2.7634  -2.7619  -2.7548  -2.7514
    -2.7445  -2.7351  -2.7304  -2.7260  -2.7225  -2.7192  -2.7044  -2.7025
    -0.8102  -0.7505  -0.7379  -0.6772  -0.5373  -0.4576  -0.4289  -0.4053
    -0.3632  -0.3127  -0.2899  -0.2607   0.0545   0.0777   0.1275   0.1559
     0.2057   0.2270   0.2513   0.3132   0.3916   0.3994   0.4220   0.4294
     0.5090   0.5649   0.6104   0.6511   0.6588   0.7191   0.7259   0.7879
     0.8102   0.8637   0.8765   0.9044   0.9211   0.9731   1.0037   1.0230
     1.0354   1.0438   1.0566   1.0763   1.1077   1.1303   1.1614   1.1718
     1.2138   1.2425   1.2526   1.2612   1.2792   1.2917   1.3098   1.3216
     1.3467   1.3677   1.3832   1.4162   1.4373   1.4620   1.4777   1.5190
     1.5305   1.5544   1.5746   1.5783   1.6199   1.6469   1.6861   1.7187

          k = 0.3750 0.3794 0.1288 (300047 PWs)   bands (ev):

   -17.5396 -17.5008 -17.4725 -17.4503 -17.4439 -17.4384 -17.4315 -17.4310
   -14.3004 -14.2951 -14.2902 -14.2857 -14.2841 -14.2789 -14.2738 -14.2706
   -14.2686 -14.2675 -14.2673 -14.2607 -14.2606 -14.2594 -14.2590 -14.2572
   -14.2539 -14.2525 -14.2511 -14.2462 -14.2453 -14.2451 -14.2431 -14.2428
   -14.2406 -14.2394 -14.2348 -14.2345 -14.2335 -14.2317 -14.2307 -14.2297
   -14.2277 -14.2254 -14.2244 -14.2240 -14.2173 -14.2124 -14.2113 -14.2026
   -10.4977 -10.4838 -10.4723 -10.4674 -10.4647 -10.4546 -10.4470 -10.4435
    -9.6249  -9.5682  -9.5481  -9.4735  -9.4482  -9.4100  -9.3937  -9.3365
    -9.2946  -9.2666  -9.2381  -9.2178  -9.1949  -9.1690  -9.1558  -9.1257
    -9.1219  -9.1152  -9.1013  -9.0859  -9.0711  -9.0499  -9.0363  -9.0099
    -6.9964  -6.9734  -6.9615  -6.9538  -6.9529  -6.9480  -6.9345  -6.9310
    -6.9207  -6.8913  -6.8392  -6.8126  -6.8097  -6.7915  -6.7873  -6.7800
    -5.6764  -5.5094  -5.4792  -5.3204  -5.2419  -5.0698  -5.0424  -4.9500
    -4.8544  -4.8340  -4.8248  -4.8149  -4.8069  -4.8044  -4.7924  -4.7566
    -2.8081  -2.7870  -2.7789  -2.7702  -2.7627  -2.7614  -2.7546  -2.7523
    -2.7464  -2.7389  -2.7332  -2.7263  -2.7236  -2.7180  -2.7046  -2.7026
    -0.8614  -0.7887  -0.7583  -0.6997  -0.5175  -0.4847  -0.4514  -0.3538
    -0.3418  -0.3157  -0.2777  -0.2326   0.0611   0.1327   0.1519   0.2170
     0.2726   0.2826   0.3109   0.3229   0.3420   0.3621   0.3753   0.4345
     0.5403   0.5756   0.5844   0.6022   0.7009   0.7135   0.7336   0.7575
     0.7792   0.7991   0.8586   0.8781   0.9135   0.9361   0.9708   0.9819
     1.0111   1.0480   1.0782   1.1077   1.1291   1.1596   1.1725   1.1861
     1.2121   1.2227   1.2363   1.2548   1.2695   1.2960   1.3108   1.3489
     1.3828   1.4072   1.4152   1.4244   1.4563   1.4708   1.4829   1.4931
     1.5183   1.5324   1.5383   1.5552   1.5685   1.6570   1.6702   1.6918

          k = 0.3750 0.3794 0.3863 (300108 PWs)   bands (ev):

   -17.5396 -17.5008 -17.4724 -17.4503 -17.4439 -17.4384 -17.4315 -17.4311
   -14.2985 -14.2943 -14.2911 -14.2873 -14.2821 -14.2796 -14.2734 -14.2691
   -14.2690 -14.2676 -14.2671 -14.2630 -14.2607 -14.2596 -14.2590 -14.2561
   -14.2539 -14.2525 -14.2511 -14.2467 -14.2453 -14.2451 -14.2431 -14.2428
   -14.2414 -14.2394 -14.2348 -14.2345 -14.2335 -14.2317 -14.2307 -14.2297
   -14.2277 -14.2253 -14.2244 -14.2241 -14.2173 -14.2124 -14.2113 -14.2026
   -10.4968 -10.4826 -10.4737 -10.4677 -10.4641 -10.4527 -10.4489 -10.4444
    -9.5943  -9.5378  -9.5302  -9.5169  -9.4737  -9.4579  -9.4227  -9.3864
    -9.2504  -9.2226  -9.2076  -9.1870  -9.1716  -9.1662  -9.1514  -9.1352
    -9.1329  -9.1106  -9.1054  -9.0906  -9.0780  -9.0570  -9.0503  -9.0213
    -6.9995  -6.9673  -6.9613  -6.9535  -6.9521  -6.9497  -6.9344  -6.9327
    -6.9191  -6.8964  -6.8361  -6.8081  -6.8025  -6.7938  -6.7903  -6.7837
    -5.5612  -5.3937  -5.3820  -5.3638  -5.2169  -5.2125  -5.1837  -5.0572
    -4.8520  -4.8343  -4.8238  -4.8157  -4.8125  -4.8029  -4.7956  -4.7873
    -2.8079  -2.7903  -2.7814  -2.7696  -2.7629  -2.7588  -2.7545  -2.7521
    -2.7468  -2.7389  -2.7312  -2.7245  -2.7215  -2.7166  -2.7040  -2.7020
    -0.5609  -0.5248  -0.4929  -0.4580  -0.4387  -0.3864  -0.3747  -0.3567
    -0.3421  -0.3101  -0.2946  -0.2220   0.0574   0.0802   0.1140   0.1355
     0.1723   0.1929   0.2173   0.2281   0.2737   0.2832   0.2942   0.3502
     0.5813   0.5986   0.6150   0.6335   0.6634   0.6965   0.7236   0.7482
     0.7633   0.7891   0.8340   0.8606   0.8753   0.8956   0.9098   0.9341
     0.9456   0.9661   0.9822   1.0040   1.0270   1.0419   1.0725   1.0894
     1.2356   1.2672   1.2691   1.2771   1.3061   1.3161   1.3347   1.3543
     1.3884   1.3971   1.4116   1.4264   1.4535   1.4567   1.4671   1.4909
     1.5048   1.5241   1.5422   1.5484   1.5608   1.5644   1.5815   1.5843

          k =-0.1250-0.1265 0.1288 (300046 PWs)   bands (ev):

   -17.5396 -17.5008 -17.4725 -17.4503 -17.4438 -17.4384 -17.4316 -17.4309
   -14.3009 -14.2961 -14.2917 -14.2863 -14.2831 -14.2781 -14.2744 -14.2705
   -14.2687 -14.2683 -14.2675 -14.2608 -14.2606 -14.2590 -14.2581 -14.2562
   -14.2539 -14.2525 -14.2511 -14.2454 -14.2453 -14.2451 -14.2431 -14.2428
   -14.2401 -14.2394 -14.2348 -14.2345 -14.2335 -14.2317 -14.2307 -14.2297
   -14.2277 -14.2254 -14.2244 -14.2240 -14.2173 -14.2124 -14.2113 -14.2026
   -10.4990 -10.4847 -10.4729 -10.4689 -10.4653 -10.4530 -10.4463 -10.4405
    -9.6999  -9.5362  -9.5170  -9.5110  -9.3655  -9.3457  -9.3361  -9.3032
    -9.2891  -9.2644  -9.2546  -9.2458  -9.2224  -9.2187  -9.2026  -9.1761
    -9.1681  -9.1532  -9.1263  -9.0848  -9.0384  -9.0136  -9.0053  -8.9795
    -6.9964  -6.9738  -6.9617  -6.9545  -6.9529  -6.9482  -6.9349  -6.9296
    -6.9218  -6.8916  -6.8397  -6.8123  -6.8100  -6.7930  -6.7859  -6.7779
    -5.9049  -5.4809  -5.4536  -5.4486  -5.0572  -5.0381  -5.0104  -4.8607
    -4.8442  -4.8330  -4.8285  -4.8215  -4.8105  -4.8053  -4.7963  -4.5747
    -2.8167  -2.7886  -2.7828  -2.7788  -2.7650  -2.7635  -2.7527  -2.7487
    -2.7460  -2.7422  -2.7302  -2.7249  -2.7181  -2.7087  -2.7042  -2.6998
    -0.9074  -0.8553  -0.8377  -0.8057  -0.7766  -0.7566  -0.7355  -0.7200
    -0.6786  -0.6258  -0.5926  -0.5523   0.2163   0.2842   0.2912   0.3068
     0.3953   0.4139   0.4284   0.4701   0.4860   0.5633   0.5760   0.5860
     0.6037   0.7176   0.7389   0.7841   0.7908   0.8064   0.8697   0.9010
     0.9137   0.9353   0.9464   0.9628   0.9779   0.9877   1.0074   1.0202
     1.0321   1.0726   1.0992   1.1151   1.1244   1.1390   1.1655   1.1787
     1.2046   1.2138   1.2280   1.2328   1.2430   1.2588   1.2729   1.2928
     1.3091   1.3298   1.3447   1.4193   1.4613   1.4737   1.4939   1.5592
     1.5987   1.6185   1.6613   1.6710   1.7159   1.7921   1.8499   2.0542

          k =-0.1250 0.1265-0.1288 (300046 PWs)   bands (ev):

   -17.5396 -17.5008 -17.4725 -17.4503 -17.4438 -17.4384 -17.4316 -17.4309
   -14.3009 -14.2961 -14.2917 -14.2863 -14.2831 -14.2781 -14.2744 -14.2705
   -14.2687 -14.2683 -14.2675 -14.2608 -14.2606 -14.2590 -14.2581 -14.2562
   -14.2539 -14.2525 -14.2511 -14.2454 -14.2453 -14.2451 -14.2431 -14.2428
   -14.2401 -14.2394 -14.2348 -14.2345 -14.2335 -14.2317 -14.2307 -14.2297
   -14.2277 -14.2254 -14.2244 -14.2240 -14.2173 -14.2124 -14.2113 -14.2026
   -10.4991 -10.4852 -10.4733 -10.4688 -10.4660 -10.4528 -10.4452 -10.4400
    -9.7045  -9.5356  -9.5084  -9.5038  -9.3665  -9.3612  -9.3460  -9.3001
    -9.2789  -9.2664  -9.2613  -9.2413  -9.2248  -9.2126  -9.2032  -9.1755
    -9.1688  -9.1499  -9.1252  -9.0864  -9.0388  -9.0150  -9.0047  -8.9786
    -6.9964  -6.9737  -6.9615  -6.9543  -6.9524  -6.9487  -6.9346  -6.9302
    -6.9222  -6.8916  -6.8397  -6.8124  -6.8100  -6.7923  -6.7862  -6.7779
    -5.9052  -5.4798  -5.4543  -5.4468  -5.0569  -5.0420  -5.0167  -4.8599
    -4.8423  -4.8348  -4.8267  -4.8200  -4.8084  -4.8031  -4.7943  -4.5771
    -2.8171  -2.7893  -2.7816  -2.7795  -2.7658  -2.7639  -2.7510  -2.7480
    -2.7463  -2.7439  -2.7301  -2.7258  -2.7179  -2.7096  -2.7024  -2.6991
    -0.9184  -0.8914  -0.8167  -0.8027  -0.7743  -0.7490  -0.7298  -0.7144
    -0.6789  -0.6235  -0.5935  -0.5356   0.2145   0.2761   0.2980   0.3211
     0.3759   0.4050   0.4257   0.4580   0.4777   0.5271   0.5788   0.5880
     0.6416   0.7284   0.7392   0.7562   0.7826   0.8145   0.8593   0.8808
     0.9147   0.9337   0.9582   0.9731   0.9886   1.0119   1.0237   1.0467
     1.0560   1.0757   1.0914   1.1083   1.1252   1.1390   1.1492   1.1691
     1.1951   1.2025   1.2093   1.2264   1.2413   1.2602   1.2665   1.2953
     1.3299   1.3337   1.3438   1.4052   1.4539   1.4828   1.5000   1.5633
     1.5974   1.6190   1.6346   1.6590   1.7688   1.7892   1.8434   2.0755

          k = 0.1250-0.1265-0.1288 (300046 PWs)   bands (ev):

   -17.5396 -17.5008 -17.4725 -17.4503 -17.4438 -17.4384 -17.4316 -17.4309
   -14.3009 -14.2961 -14.2917 -14.2863 -14.2831 -14.2781 -14.2744 -14.2705
   -14.2687 -14.2683 -14.2675 -14.2608 -14.2606 -14.2590 -14.2581 -14.2562
   -14.2539 -14.2525 -14.2511 -14.2454 -14.2453 -14.2451 -14.2431 -14.2428
   -14.2401 -14.2394 -14.2348 -14.2345 -14.2335 -14.2317 -14.2307 -14.2297
   -14.2277 -14.2254 -14.2244 -14.2240 -14.2173 -14.2124 -14.2113 -14.2026
   -10.4992 -10.4851 -10.4732 -10.4689 -10.4661 -10.4527 -10.4452 -10.4400
    -9.7046  -9.5358  -9.5088  -9.5030  -9.3686  -9.3600  -9.3449  -9.2979
    -9.2839  -9.2656  -9.2602  -9.2415  -9.2224  -9.2139  -9.2046  -9.1752
    -9.1666  -9.1512  -9.1260  -9.0860  -9.0389  -9.0146  -9.0051  -8.9785
    -6.9964  -6.9737  -6.9615  -6.9543  -6.9523  -6.9488  -6.9344  -6.9303
    -6.9225  -6.8915  -6.8397  -6.8124  -6.8100  -6.7923  -6.7862  -6.7780
    -5.9053  -5.4798  -5.4541  -5.4467  -5.0571  -5.0419  -5.0167  -4.8600
    -4.8422  -4.8346  -4.8267  -4.8200  -4.8085  -4.8031  -4.7943  -4.5772
    -2.8171  -2.7906  -2.7809  -2.7795  -2.7676  -2.7629  -2.7504  -2.7488
    -2.7462  -2.7433  -2.7299  -2.7254  -2.7162  -2.7087  -2.7041  -2.6994
    -0.9181  -0.8919  -0.8192  -0.7989  -0.7680  -0.7550  -0.7367  -0.7080
    -0.6789  -0.6239  -0.5940  -0.5361   0.2149   0.2762   0.2987   0.3210
     0.3780   0.3994   0.4315   0.4621   0.4727   0.5231   0.5794   0.5871
     0.6432   0.7275   0.7451   0.7555   0.7830   0.8150   0.8699   0.8781
     0.9101   0.9214   0.9575   0.9743   0.9875   1.0060   1.0194   1.0528
     1.0604   1.0850   1.0930   1.0995   1.1263   1.1415   1.1479   1.1682
     1.1951   1.2022   1.2064   1.2295   1.2422   1.2593   1.2693   1.2908
     1.3291   1.3379   1.3454   1.4044   1.4525   1.4838   1.4981   1.5643
     1.5981   1.6195   1.6336   1.6586   1.7708   1.7865   1.8438   2.0762

          k =-0.1250-0.1265 0.3863 (300086 PWs)   bands (ev):

   -17.5396 -17.5008 -17.4725 -17.4503 -17.4438 -17.4384 -17.4316 -17.4309
   -14.2992 -14.2950 -14.2924 -14.2881 -14.2811 -14.2788 -14.2742 -14.2696
   -14.2686 -14.2681 -14.2673 -14.2632 -14.2607 -14.2590 -14.2578 -14.2555
   -14.2539 -14.2525 -14.2511 -14.2460 -14.2453 -14.2451 -14.2431 -14.2428
   -14.2409 -14.2395 -14.2348 -14.2345 -14.2335 -14.2317 -14.2307 -14.2297
   -14.2277 -14.2253 -14.2244 -14.2240 -14.2173 -14.2124 -14.2113 -14.2026
   -10.4977 -10.4844 -10.4738 -10.4679 -10.4650 -10.4542 -10.4464 -10.4411
    -9.6639  -9.6022  -9.4851  -9.4805  -9.4255  -9.4152  -9.3241  -9.3000
    -9.2863  -9.2690  -9.2406  -9.2308  -9.2075  -9.1974  -9.1804  -9.1664
    -9.1523  -9.1213  -9.1154  -9.0939  -9.0646  -9.0418  -9.0063  -8.9881
    -6.9995  -6.9679  -6.9612  -6.9539  -6.9526  -6.9499  -6.9344  -6.9321
    -6.9201  -6.8964  -6.8361  -6.8082  -6.8021  -6.7947  -6.7895  -6.7832
    -5.7824  -5.5951  -5.3643  -5.3369  -5.1820  -5.1552  -4.9659  -4.8768
    -4.8486  -4.8361  -4.8301  -4.8215  -4.8098  -4.7994  -4.7864  -4.6985
    -2.8151  -2.7829  -2.7818  -2.7762  -2.7614  -2.7608  -2.7538  -2.7519
    -2.7439  -2.7379  -2.7340  -2.7268  -2.7237  -2.7105  -2.7031  -2.7025
    -0.8268  -0.8093  -0.7787  -0.7430  -0.7162  -0.7077  -0.6531  -0.6474
    -0.4877  -0.3961  -0.3744  -0.2628   0.0417   0.1285   0.1422   0.2424
     0.3204   0.3417   0.3840   0.4034   0.4259   0.4444   0.4605   0.4974
     0.5028   0.5494   0.7410   0.7543   0.7724   0.7942   0.8619   0.8858
     0.9007   0.9208   0.9370   0.9659   0.9895   1.0100   1.0334   1.0433
     1.0501   1.0688   1.0834   1.0979   1.1115   1.1264   1.1364   1.1621
     1.1931   1.2044   1.2232   1.2293   1.2471   1.2638   1.2691   1.3021
     1.3437   1.3522   1.3788   1.4079   1.4278   1.4481   1.4609   1.5327
     1.5848   1.6057   1.6359   1.6580   1.6662   1.6761   1.7510   1.8534

          k =-0.1250 0.1265-0.3863 (300086 PWs)   bands (ev):

   -17.5396 -17.5008 -17.4725 -17.4503 -17.4438 -17.4384 -17.4316 -17.4309
   -14.2992 -14.2950 -14.2924 -14.2881 -14.2811 -14.2788 -14.2742 -14.2696
   -14.2686 -14.2681 -14.2673 -14.2632 -14.2607 -14.2590 -14.2578 -14.2555
   -14.2539 -14.2525 -14.2511 -14.2460 -14.2453 -14.2451 -14.2431 -14.2428
   -14.2409 -14.2395 -14.2348 -14.2345 -14.2335 -14.2317 -14.2307 -14.2297
   -14.2277 -14.2253 -14.2244 -14.2240 -14.2173 -14.2124 -14.2113 -14.2026
   -10.4978 -10.4847 -10.4743 -10.4681 -10.4654 -10.4543 -10.4454 -10.4404
    -9.6683  -9.6030  -9.4777  -9.4730  -9.4215  -9.4147  -9.3410  -9.3067
    -9.2874  -9.2695  -9.2393  -9.2266  -9.2065  -9.1960  -9.1821  -9.1664
    -9.1454  -9.1225  -9.1169  -9.0939  -9.0653  -9.0430  -9.0049  -8.9871
    -6.9995  -6.9678  -6.9609  -6.9539  -6.9524  -6.9505  -6.9344  -6.9325
    -6.9202  -6.8964  -6.8361  -6.8081  -6.8022  -6.7946  -6.7895  -6.7831
    -5.7818  -5.5934  -5.3640  -5.3391  -5.1835  -5.1589  -4.9635  -4.8711
    -4.8491  -4.8381  -4.8313  -4.8227  -4.8077  -4.7981  -4.7850  -4.7014
    -2.8154  -2.7836  -2.7815  -2.7755  -2.7621  -2.7595  -2.7550  -2.7501
    -2.7455  -2.7394  -2.7335  -2.7266  -2.7242  -2.7111  -2.7027  -2.7009
    -0.8718  -0.8130  -0.7709  -0.7177  -0.7131  -0.6889  -0.6545  -0.6310
    -0.4982  -0.3915  -0.3718  -0.2665   0.0375   0.1277   0.1445   0.2377
     0.3127   0.3396   0.3825   0.4027   0.4199   0.4475   0.4591   0.4798
     0.5009   0.5720   0.7556   0.7626   0.7755   0.7952   0.8120   0.8416
     0.9190   0.9337   0.9606   0.9719   0.9977   1.0136   1.0300   1.0397
     1.0506   1.0643   1.0747   1.0952   1.1058   1.1344   1.1526   1.1595
     1.1757   1.2023   1.2171   1.2333   1.2455   1.2537   1.2803   1.3335
     1.3524   1.3622   1.3743   1.4042   1.4283   1.4527   1.4548   1.5328
     1.5814   1.6065   1.6236   1.6380   1.6461   1.6615   1.7973   1.8824

          k = 0.1250-0.1265-0.3863 (300086 PWs)   bands (ev):

   -17.5396 -17.5008 -17.4725 -17.4503 -17.4438 -17.4384 -17.4316 -17.4309
   -14.2992 -14.2950 -14.2924 -14.2881 -14.2811 -14.2788 -14.2742 -14.2696
   -14.2686 -14.2681 -14.2673 -14.2632 -14.2607 -14.2590 -14.2578 -14.2555
   -14.2539 -14.2525 -14.2511 -14.2460 -14.2453 -14.2451 -14.2431 -14.2428
   -14.2409 -14.2395 -14.2348 -14.2345 -14.2335 -14.2317 -14.2307 -14.2297
   -14.2277 -14.2253 -14.2244 -14.2240 -14.2173 -14.2124 -14.2113 -14.2026
   -10.4979 -10.4846 -10.4742 -10.4682 -10.4656 -10.4541 -10.4454 -10.4405
    -9.6683  -9.6030  -9.4776  -9.4729  -9.4231  -9.4129  -9.3416  -9.3060
    -9.2870  -9.2712  -9.2375  -9.2274  -9.2071  -9.1959  -9.1830  -9.1613
    -9.1498  -9.1230  -9.1153  -9.0944  -9.0658  -9.0422  -9.0051  -8.9871
    -6.9995  -6.9677  -6.9610  -6.9539  -6.9523  -6.9505  -6.9343  -6.9325
    -6.9206  -6.8962  -6.8361  -6.8081  -6.8021  -6.7945  -6.7895  -6.7832
    -5.7821  -5.5931  -5.3641  -5.3388  -5.1835  -5.1592  -4.9638  -4.8708
    -4.8489  -4.8382  -4.8312  -4.8226  -4.8078  -4.7981  -4.7850  -4.7014
    -2.8154  -2.7849  -2.7815  -2.7756  -2.7628  -2.7574  -2.7556  -2.7521
    -2.7446  -2.7398  -2.7321  -2.7258  -2.7236  -2.7104  -2.7030  -2.7022
    -0.8726  -0.8120  -0.7710  -0.7182  -0.7090  -0.6907  -0.6562  -0.6308
    -0.4981  -0.3946  -0.3700  -0.2678   0.0388   0.1320   0.1415   0.2386
     0.3139   0.3407   0.3797   0.4021   0.4178   0.4454   0.4637   0.4786
     0.5035   0.5728   0.7546   0.7602   0.7641   0.8050   0.8106   0.8412
     0.9196   0.9376   0.9594   0.9746   0.9998   1.0123   1.0330   1.0362
     1.0522   1.0637   1.0742   1.0905   1.1044   1.1291   1.1534   1.1622
     1.1795   1.2043   1.2179   1.2326   1.2404   1.2602   1.2778   1.3360
     1.3535   1.3602   1.3695   1.4067   1.4268   1.4531   1.4561   1.5323
     1.5847   1.6076   1.6171   1.6364   1.6468   1.6646   1.7970   1.8833

          k =-0.1250-0.3794 0.1288 (300031 PWs)   bands (ev):

   -17.5396 -17.5008 -17.4724 -17.4503 -17.4438 -17.4384 -17.4316 -17.4309
   -14.3009 -14.2956 -14.2914 -14.2857 -14.2830 -14.2779 -14.2737 -14.2707
   -14.2692 -14.2685 -14.2674 -14.2610 -14.2607 -14.2590 -14.2582 -14.2569
   -14.2539 -14.2525 -14.2511 -14.2455 -14.2453 -14.2451 -14.2431 -14.2428
   -14.2406 -14.2394 -14.2348 -14.2345 -14.2335 -14.2317 -14.2307 -14.2297
   -14.2277 -14.2254 -14.2244 -14.2240 -14.2173 -14.2124 -14.2113 -14.2026
   -10.4976 -10.4836 -10.4725 -10.4680 -10.4646 -10.4544 -10.4471 -10.4433
    -9.6621  -9.5764  -9.5064  -9.4932  -9.4203  -9.3956  -9.3420  -9.2999
    -9.2929  -9.2751  -9.2561  -9.2377  -9.2203  -9.1953  -9.1790  -9.1650
    -9.1494  -9.1038  -9.0922  -9.0820  -9.0588  -9.0349  -9.0130  -9.0061
    -6.9965  -6.9734  -6.9615  -6.9543  -6.9524  -6.9486  -6.9346  -6.9308
    -6.9214  -6.8912  -6.8391  -6.8126  -6.8099  -6.7923  -6.7875  -6.7784
    -5.7859  -5.5947  -5.3695  -5.3388  -5.1920  -5.1509  -4.9478  -4.8799
    -4.8509  -4.8329  -4.8247  -4.8161  -4.8119  -4.8055  -4.7867  -4.6897
    -2.8101  -2.7886  -2.7783  -2.7745  -2.7632  -2.7613  -2.7553  -2.7531
    -2.7446  -2.7422  -2.7351  -2.7276  -2.7220  -2.7097  -2.7047  -2.6996
    -0.8834  -0.8491  -0.7906  -0.7860  -0.7502  -0.7297  -0.6660  -0.5796
    -0.4491  -0.3836  -0.3005  -0.2280   0.0859   0.1510   0.2579   0.2746
     0.3189   0.3311   0.3455   0.3631   0.4391   0.4536   0.4714   0.5315
     0.5425   0.6125   0.6286   0.6446   0.7193   0.8099   0.8278   0.8405
     0.8815   0.9099   0.9190   0.9545   0.9754   0.9884   1.0006   1.0097
     1.0289   1.0501   1.0847   1.1053   1.1344   1.1507   1.1800   1.1987
     1.2122   1.2246   1.2364   1.2467   1.2626   1.2752   1.2972   1.3188
     1.3237   1.3371   1.3879   1.4133   1.4588   1.4827   1.4976   1.5135
     1.5548   1.5706   1.5820   1.5940   1.6193   1.6511   1.8182   1.8715

          k =-0.1250 0.3794-0.1288 (300031 PWs)   bands (ev):

   -17.5396 -17.5008 -17.4724 -17.4503 -17.4438 -17.4384 -17.4316 -17.4309
   -14.3009 -14.2956 -14.2914 -14.2857 -14.2830 -14.2779 -14.2737 -14.2707
   -14.2692 -14.2685 -14.2674 -14.2610 -14.2607 -14.2590 -14.2582 -14.2569
   -14.2539 -14.2525 -14.2511 -14.2455 -14.2453 -14.2451 -14.2431 -14.2428
   -14.2406 -14.2394 -14.2348 -14.2345 -14.2335 -14.2317 -14.2307 -14.2297
   -14.2277 -14.2254 -14.2244 -14.2240 -14.2173 -14.2124 -14.2113 -14.2026
   -10.4977 -10.4841 -10.4728 -10.4685 -10.4652 -10.4534 -10.4467 -10.4425
    -9.6710  -9.5657  -9.5060  -9.4759  -9.4228  -9.4167  -9.3440  -9.3036
    -9.2852  -9.2753  -9.2604  -9.2344  -9.2184  -9.1967  -9.1784  -9.1650
    -9.1470  -9.1033  -9.0953  -9.0762  -9.0604  -9.0364  -9.0179  -9.0011
    -6.9965  -6.9733  -6.9613  -6.9541  -6.9515  -6.9494  -6.9345  -6.9315
    -6.9216  -6.8913  -6.8391  -6.8127  -6.8100  -6.7914  -6.7881  -6.7784
    -5.7863  -5.5944  -5.3701  -5.3325  -5.1913  -5.1588  -4.9631  -4.8649
    -4.8498  -4.8361  -4.8249  -4.8135  -4.8102  -4.8025  -4.7814  -4.6978
    -2.8105  -2.7882  -2.7795  -2.7746  -2.7627  -2.7607  -2.7563  -2.7539
    -2.7436  -2.7413  -2.7361  -2.7281  -2.7223  -2.7107  -2.7026  -2.6990
    -0.8873  -0.8632  -0.7963  -0.7743  -0.7523  -0.7308  -0.6695  -0.5854
    -0.4314  -0.3603  -0.2776  -0.2105   0.0721   0.1108   0.2464   0.2606
     0.3164   0.3327   0.3556   0.3786   0.4163   0.4318   0.4610   0.4954
     0.5405   0.6281   0.6425   0.6918   0.7146   0.8115   0.8254   0.8401
     0.8839   0.9068   0.9202   0.9710   0.9811   0.9934   1.0096   1.0274
     1.0372   1.0488   1.0879   1.0953   1.1286   1.1390   1.1676   1.1996
     1.2051   1.2237   1.2374   1.2509   1.2629   1.2724   1.2952   1.3243
     1.3276   1.3452   1.3799   1.4065   1.4402   1.4718   1.4952   1.5216
     1.5413   1.5664   1.5803   1.5946   1.6291   1.6806   1.8003   1.9051

          k = 0.1250-0.3794-0.1288 (300031 PWs)   bands (ev):

   -17.5396 -17.5008 -17.4724 -17.4503 -17.4438 -17.4384 -17.4316 -17.4309
   -14.3009 -14.2956 -14.2914 -14.2857 -14.2830 -14.2779 -14.2737 -14.2707
   -14.2692 -14.2685 -14.2674 -14.2610 -14.2607 -14.2590 -14.2582 -14.2569
   -14.2539 -14.2525 -14.2511 -14.2455 -14.2453 -14.2451 -14.2431 -14.2428
   -14.2406 -14.2394 -14.2348 -14.2345 -14.2335 -14.2317 -14.2307 -14.2297
   -14.2277 -14.2254 -14.2244 -14.2240 -14.2173 -14.2124 -14.2113 -14.2026
   -10.4977 -10.4841 -10.4727 -10.4686 -10.4654 -10.4532 -10.4466 -10.4426
    -9.6715  -9.5645  -9.5049  -9.4768  -9.4237  -9.4191  -9.3409  -9.2992
    -9.2868  -9.2804  -9.2593  -9.2342  -9.2196  -9.1953  -9.1780  -9.1650
    -9.1473  -9.1032  -9.0959  -9.0764  -9.0601  -9.0355  -9.0184  -9.0012
    -6.9965  -6.9732  -6.9613  -6.9542  -6.9515  -6.9494  -6.9342  -6.9314
    -6.9221  -6.8911  -6.8392  -6.8127  -6.8100  -6.7913  -6.7881  -6.7785
    -5.7866  -5.5940  -5.3701  -5.3322  -5.1913  -5.1591  -4.9639  -4.8644
    -4.8495  -4.8361  -4.8249  -4.8134  -4.8101  -4.8023  -4.7811  -4.6984
    -2.8106  -2.7885  -2.7811  -2.7733  -2.7633  -2.7609  -2.7559  -2.7536
    -2.7453  -2.7413  -2.7348  -2.7261  -2.7221  -2.7092  -2.7046  -2.6993
    -0.8872  -0.8641  -0.7934  -0.7848  -0.7419  -0.7305  -0.6689  -0.5847
    -0.4341  -0.3636  -0.2780  -0.2116   0.0751   0.1137   0.2461   0.2611
     0.3191   0.3329   0.3563   0.3751   0.4148   0.4265   0.4536   0.5008
     0.5557   0.6263   0.6348   0.6890   0.7204   0.8137   0.8310   0.8421
     0.8873   0.9015   0.9202   0.9665   0.9802   0.9909   0.9998   1.0247
     1.0369   1.0472   1.0907   1.0960   1.1297   1.1417   1.1706   1.1945
     1.2049   1.2278   1.2406   1.2543   1.2660   1.2735   1.2857   1.3162
     1.3317   1.3481   1.3855   1.3990   1.4401   1.4726   1.4958   1.5246
     1.5454   1.5631   1.5809   1.5923   1.6308   1.6807   1.7995   1.9054

          k =-0.1250-0.3794 0.3863 (300041 PWs)   bands (ev):

   -17.5396 -17.5008 -17.4724 -17.4503 -17.4438 -17.4384 -17.4317 -17.4309
   -14.2992 -14.2945 -14.2922 -14.2874 -14.2810 -14.2787 -14.2733 -14.2693
   -14.2690 -14.2685 -14.2676 -14.2635 -14.2607 -14.2590 -14.2580 -14.2561
   -14.2539 -14.2525 -14.2511 -14.2461 -14.2453 -14.2451 -14.2431 -14.2428
   -14.2414 -14.2394 -14.2348 -14.2345 -14.2335 -14.2317 -14.2307 -14.2297
   -14.2277 -14.2253 -14.2244 -14.2240 -14.2173 -14.2124 -14.2113 -14.2026
   -10.4968 -10.4823 -10.4740 -10.4682 -10.4640 -10.4527 -10.4489 -10.4441
    -9.6282  -9.5702  -9.5447  -9.4843  -9.4601  -9.4017  -9.3732  -9.3280
    -9.2929  -9.2768  -9.2155  -9.2070  -9.1997  -9.1696  -9.1630  -9.1498
    -9.1274  -9.1206  -9.1044  -9.0809  -9.0724  -9.0461  -9.0294  -9.0120
    -6.9996  -6.9674  -6.9611  -6.9540  -6.9523  -6.9503  -6.9347  -6.9325
    -6.9195  -6.8964  -6.8359  -6.8081  -6.8021  -6.7947  -6.7899  -6.7834
    -5.6662  -5.4841  -5.4761  -5.2950  -5.2565  -5.0905  -5.0805  -4.9482
    -4.8502  -4.8342  -4.8233  -4.8178  -4.8116  -4.8022  -4.7942  -4.7659
    -2.8089  -2.7913  -2.7833  -2.7699  -2.7629  -2.7607  -2.7534  -2.7509
    -2.7448  -2.7405  -2.7358  -2.7246  -2.7213  -2.7101  -2.7033  -2.7023
    -0.8189  -0.7621  -0.7363  -0.6809  -0.5499  -0.4576  -0.4442  -0.3940
    -0.3256  -0.3057  -0.2858  -0.2623   0.0509   0.0983   0.1204   0.1508
     0.2112   0.2559   0.2609   0.3321   0.3636   0.3953   0.4251   0.4310
     0.5103   0.5389   0.5983   0.6279   0.6984   0.7339   0.7845   0.8260
     0.8507   0.8674   0.8931   0.9361   0.9592   0.9683   0.9893   1.0079
     1.0266   1.0397   1.0536   1.0597   1.1021   1.1152   1.1361   1.1512
     1.2009   1.2301   1.2400   1.2507   1.2652   1.2764   1.3057   1.3214
     1.3669   1.3804   1.4044   1.4238   1.4443   1.4577   1.4730   1.4882
     1.5133   1.5347   1.5666   1.5851   1.6085   1.6366   1.6604   1.7021

          k =-0.1250 0.3794-0.3863 (300041 PWs)   bands (ev):

   -17.5396 -17.5008 -17.4724 -17.4503 -17.4438 -17.4384 -17.4317 -17.4309
   -14.2992 -14.2945 -14.2922 -14.2874 -14.2810 -14.2787 -14.2733 -14.2693
   -14.2690 -14.2685 -14.2676 -14.2635 -14.2607 -14.2590 -14.2580 -14.2561
   -14.2539 -14.2525 -14.2511 -14.2461 -14.2453 -14.2451 -14.2431 -14.2428
   -14.2414 -14.2394 -14.2348 -14.2345 -14.2335 -14.2317 -14.2307 -14.2297
   -14.2277 -14.2253 -14.2244 -14.2240 -14.2173 -14.2124 -14.2113 -14.2026
   -10.4970 -10.4825 -10.4743 -10.4690 -10.4641 -10.4527 -10.4480 -10.4432
    -9.6356  -9.5735  -9.5366  -9.4773  -9.4455  -9.3979  -9.3907  -9.3421
    -9.2925  -9.2741  -9.2155  -9.2046  -9.1992  -9.1711  -9.1613  -9.1467
    -9.1304  -9.1198  -9.1001  -9.0835  -9.0745  -9.0497  -9.0262  -9.0098
    -6.9996  -6.9673  -6.9608  -6.9539  -6.9520  -6.9509  -6.9350  -6.9328
    -6.9194  -6.8964  -6.8359  -6.8080  -6.8022  -6.7945  -6.7899  -6.7833
    -5.6647  -5.4821  -5.4756  -5.2996  -5.2594  -5.0892  -5.0855  -4.9356
    -4.8517  -4.8373  -4.8249  -4.8183  -4.8106  -4.8003  -4.7928  -4.7685
    -2.8093  -2.7909  -2.7840  -2.7692  -2.7624  -2.7601  -2.7546  -2.7513
    -2.7440  -2.7409  -2.7373  -2.7248  -2.7216  -2.7108  -2.7022  -2.7012
    -0.8344  -0.7744  -0.7314  -0.6788  -0.5410  -0.4490  -0.4330  -0.3816
    -0.3277  -0.3057  -0.2695  -0.2463   0.0363   0.0766   0.1151   0.1442
     0.1977   0.2251   0.2820   0.3212   0.3583   0.3933   0.4267   0.4389
     0.4999   0.5508   0.6129   0.6330   0.6837   0.7306   0.7853   0.8110
     0.8553   0.8823   0.9208   0.9385   0.9646   0.9806   0.9921   1.0045
     1.0207   1.0334   1.0371   1.0544   1.0697   1.1198   1.1327   1.1758
     1.1953   1.2262   1.2456   1.2591   1.2744   1.2864   1.2969   1.3368
     1.3761   1.3896   1.4051   1.4268   1.4428   1.4483   1.4719   1.4799
     1.5085   1.5180   1.5355   1.5617   1.5984   1.6386   1.6944   1.7462

          k = 0.1250-0.3794-0.3863 (300041 PWs)   bands (ev):

   -17.5396 -17.5008 -17.4724 -17.4503 -17.4438 -17.4384 -17.4317 -17.4309
   -14.2992 -14.2945 -14.2922 -14.2874 -14.2810 -14.2787 -14.2733 -14.2693
   -14.2690 -14.2685 -14.2676 -14.2635 -14.2607 -14.2590 -14.2580 -14.2561
   -14.2539 -14.2525 -14.2511 -14.2461 -14.2453 -14.2451 -14.2431 -14.2428
   -14.2414 -14.2394 -14.2348 -14.2345 -14.2335 -14.2317 -14.2307 -14.2297
   -14.2277 -14.2253 -14.2244 -14.2240 -14.2173 -14.2124 -14.2113 -14.2026
   -10.4970 -10.4824 -10.4742 -10.4691 -10.4644 -10.4524 -10.4480 -10.4433
    -9.6369  -9.5722  -9.5327  -9.4822  -9.4473  -9.3953  -9.3905  -9.3406
    -9.2925  -9.2763  -9.2136  -9.2074  -9.1975  -9.1714  -9.1620  -9.1449
    -9.1303  -9.1195  -9.1025  -9.0808  -9.0780  -9.0461  -9.0281  -9.0096
    -6.9996  -6.9672  -6.9609  -6.9540  -6.9520  -6.9509  -6.9347  -6.9328
    -6.9200  -6.8962  -6.8360  -6.8080  -6.8021  -6.7944  -6.7899  -6.7834
    -5.6653  -5.4805  -5.4757  -5.3002  -5.2596  -5.0918  -5.0839  -4.9343
    -4.8517  -4.8374  -4.8248  -4.8181  -4.8104  -4.8003  -4.7929  -4.7691
    -2.8095  -2.7914  -2.7840  -2.7699  -2.7621  -2.7603  -2.7549  -2.7510
    -2.7442  -2.7415  -2.7363  -2.7232  -2.7213  -2.7097  -2.7030  -2.7022
    -0.8344  -0.7751  -0.7337  -0.6782  -0.5331  -0.4404  -0.4295  -0.3833
    -0.3372  -0.3070  -0.2739  -0.2613   0.0407   0.0836   0.1295   0.1450
     0.1974   0.2290   0.2749   0.3114   0.3580   0.3986   0.4292   0.4337
     0.4958   0.5543   0.6172   0.6326   0.6844   0.7302   0.7834   0.8071
     0.8511   0.8837   0.9217   0.9436   0.9626   0.9818   0.9909   1.0067
     1.0190   1.0312   1.0367   1.0545   1.0674   1.1194   1.1376   1.1704
     1.1936   1.2314   1.2527   1.2583   1.2762   1.2837   1.2953   1.3305
     1.3764   1.3848   1.4076   1.4265   1.4442   1.4484   1.4697   1.4855
     1.5022   1.5264   1.5402   1.5584   1.5980   1.6377   1.6940   1.7457

          k =-0.3750-0.1265 0.1288 (300140 PWs)   bands (ev):

   -17.5396 -17.5008 -17.4725 -17.4503 -17.4439 -17.4384 -17.4315 -17.4310
   -14.3004 -14.2957 -14.2905 -14.2862 -14.2841 -14.2791 -14.2745 -14.2703
   -14.2682 -14.2680 -14.2667 -14.2607 -14.2604 -14.2594 -14.2590 -14.2564
   -14.2539 -14.2525 -14.2511 -14.2460 -14.2453 -14.2451 -14.2431 -14.2428
   -14.2401 -14.2395 -14.2348 -14.2345 -14.2335 -14.2317 -14.2307 -14.2297
   -14.2277 -14.2254 -14.2244 -14.2240 -14.2173 -14.2124 -14.2113 -14.2026
   -10.4987 -10.4840 -10.4721 -10.4683 -10.4638 -10.4540 -10.4481 -10.4418
    -9.6601  -9.5869  -9.5030  -9.4885  -9.4252  -9.4028  -9.3402  -9.2985
    -9.2922  -9.2691  -9.2455  -9.2232  -9.2133  -9.1988  -9.1923  -9.1566
    -9.1343  -9.1146  -9.1088  -9.1025  -9.0500  -9.0341  -9.0324  -8.9848
    -6.9964  -6.9737  -6.9614  -6.9536  -6.9525  -6.9485  -6.9343  -6.9310
    -6.9216  -6.8918  -6.8397  -6.8126  -6.8098  -6.7911  -6.7859  -6.7800
    -5.7918  -5.6128  -5.3500  -5.3438  -5.1848  -5.1675  -4.9309  -4.8772
    -4.8526  -4.8286  -4.8255  -4.8192  -4.8081  -4.8004  -4.7915  -4.6851
    -2.8134  -2.7879  -2.7823  -2.7725  -2.7658  -2.7609  -2.7548  -2.7500
    -2.7461  -2.7361  -2.7305  -2.7254  -2.7193  -2.7147  -2.7071  -2.7036
    -0.8889  -0.8326  -0.8141  -0.7635  -0.7604  -0.7042  -0.6510  -0.6015
    -0.4633  -0.3819  -0.3145  -0.2303   0.0829   0.1587   0.2606   0.2744
     0.3072   0.3251   0.3488   0.3549   0.4220   0.4388   0.4619   0.5227
     0.5338   0.6041   0.6229   0.6530   0.7092   0.7829   0.8142   0.8319
     0.8729   0.8844   0.9187   0.9715   0.9831   1.0015   1.0168   1.0316
     1.0475   1.0603   1.0895   1.1017   1.1170   1.1507   1.1860   1.1904
     1.2152   1.2268   1.2437   1.2534   1.2610   1.2761   1.2866   1.3093
     1.3250   1.3383   1.3713   1.4215   1.4384   1.4816   1.5020   1.5409
     1.5505   1.5830   1.5896   1.6056   1.6286   1.6439   1.8702   1.9029

          k =-0.3750 0.1265-0.1288 (300140 PWs)   bands (ev):

   -17.5396 -17.5008 -17.4725 -17.4503 -17.4439 -17.4384 -17.4315 -17.4310
   -14.3004 -14.2957 -14.2905 -14.2862 -14.2841 -14.2791 -14.2745 -14.2703
   -14.2682 -14.2680 -14.2667 -14.2607 -14.2604 -14.2594 -14.2590 -14.2564
   -14.2539 -14.2525 -14.2511 -14.2460 -14.2453 -14.2451 -14.2431 -14.2428
   -14.2401 -14.2394 -14.2348 -14.2345 -14.2335 -14.2317 -14.2307 -14.2297
   -14.2277 -14.2254 -14.2244 -14.2240 -14.2173 -14.2124 -14.2113 -14.2026
   -10.4988 -10.4844 -10.4726 -10.4682 -10.4648 -10.4534 -10.4471 -10.4412
    -9.6704  -9.5738  -9.5022  -9.4701  -9.4309  -9.4242  -9.3376  -9.3018
    -9.2922  -9.2664  -9.2447  -9.2249  -9.2136  -9.2001  -9.1894  -9.1563
    -9.1330  -9.1155  -9.1070  -9.0982  -9.0562  -9.0348  -9.0300  -8.9840
    -6.9964  -6.9735  -6.9613  -6.9535  -6.9514  -6.9494  -6.9338  -6.9320
    -6.9219  -6.8918  -6.8398  -6.8127  -6.8098  -6.7902  -6.7865  -6.7800
    -5.7923  -5.6124  -5.3503  -5.3379  -5.1841  -5.1751  -4.9484  -4.8624
    -4.8505  -4.8321  -4.8269  -4.8145  -4.8061  -4.7975  -4.7852  -4.6936
    -2.8138  -2.7885  -2.7812  -2.7737  -2.7658  -2.7620  -2.7539  -2.7489
    -2.7453  -2.7383  -2.7311  -2.7257  -2.7193  -2.7145  -2.7057  -2.7028
    -0.8943  -0.8477  -0.8114  -0.7676  -0.7544  -0.7032  -0.6547  -0.6072
    -0.4446  -0.3622  -0.2884  -0.2150   0.0690   0.1209   0.2408   0.2614
     0.3091   0.3283   0.3563   0.3673   0.4034   0.4215   0.4427   0.4959
     0.5383   0.6198   0.6272   0.6902   0.7163   0.7809   0.8097   0.8454
     0.8670   0.9023   0.9478   0.9651   0.9834   0.9876   1.0127   1.0310
     1.0582   1.0692   1.0832   1.1044   1.1214   1.1401   1.1761   1.1978
     1.2163   1.2230   1.2367   1.2502   1.2631   1.2765   1.2872   1.3070
     1.3220   1.3396   1.3706   1.4147   1.4319   1.4717   1.4979   1.5376
     1.5639   1.5751   1.5813   1.6009   1.6214   1.6906   1.8497   1.9366

          k = 0.3750-0.1265-0.1288 (300140 PWs)   bands (ev):

   -17.5396 -17.5008 -17.4725 -17.4503 -17.4439 -17.4384 -17.4315 -17.4310
   -14.3004 -14.2957 -14.2905 -14.2862 -14.2841 -14.2791 -14.2745 -14.2703
   -14.2682 -14.2680 -14.2667 -14.2607 -14.2604 -14.2594 -14.2590 -14.2564
   -14.2539 -14.2525 -14.2511 -14.2460 -14.2453 -14.2451 -14.2431 -14.2428
   -14.2401 -14.2394 -14.2348 -14.2345 -14.2335 -14.2317 -14.2307 -14.2297
   -14.2277 -14.2254 -14.2244 -14.2240 -14.2173 -14.2124 -14.2113 -14.2026
   -10.4989 -10.4843 -10.4725 -10.4683 -10.4649 -10.4533 -10.4472 -10.4412
    -9.6699  -9.5751  -9.5032  -9.4689  -9.4305  -9.4218  -9.3415  -9.3025
    -9.2890  -9.2678  -9.2450  -9.2229  -9.2137  -9.2004  -9.1906  -9.1551
    -9.1343  -9.1154  -9.1079  -9.0966  -9.0567  -9.0343  -9.0303  -8.9839
    -6.9964  -6.9735  -6.9613  -6.9535  -6.9514  -6.9494  -6.9334  -6.9320
    -6.9224  -6.8916  -6.8398  -6.8127  -6.8097  -6.7902  -6.7864  -6.7802
    -5.7923  -5.6125  -5.3502  -5.3378  -5.1843  -5.1749  -4.9478  -4.8628
    -4.8506  -4.8320  -4.8270  -4.8147  -4.8061  -4.7976  -4.7857  -4.6931
    -2.8138  -2.7901  -2.7807  -2.7733  -2.7670  -2.7621  -2.7536  -2.7488
    -2.7448  -2.7374  -2.7314  -2.7257  -2.7179  -2.7135  -2.7070  -2.7032
    -0.8877  -0.8557  -0.8073  -0.7659  -0.7583  -0.7058  -0.6556  -0.6076
    -0.4416  -0.3600  -0.2889  -0.2153   0.0678   0.1184   0.2470   0.2607
     0.3102   0.3262   0.3560   0.3673   0.4034   0.4253   0.4497   0.4926
     0.5249   0.6218   0.6310   0.6884   0.7176   0.7812   0.8028   0.8313
     0.8666   0.9097   0.9506   0.9664   0.9889   0.9962   1.0215   1.0318
     1.0517   1.0690   1.0803   1.1064   1.1189   1.1322   1.1738   1.1966
     1.2175   1.2271   1.2349   1.2496   1.2704   1.2739   1.2844   1.3064
     1.3283   1.3441   1.3666   1.4159   1.4309   1.4691   1.4943   1.5413
     1.5576   1.5745   1.5853   1.6037   1.6209   1.6891   1.8494   1.9366

          k =-0.3750-0.1265 0.3863 (300108 PWs)   bands (ev):

   -17.5396 -17.5008 -17.4725 -17.4503 -17.4439 -17.4384 -17.4315 -17.4310
   -14.2986 -14.2948 -14.2913 -14.2881 -14.2822 -14.2797 -14.2742 -14.2696
   -14.2683 -14.2672 -14.2667 -14.2628 -14.2607 -14.2594 -14.2590 -14.2555
   -14.2539 -14.2525 -14.2511 -14.2466 -14.2453 -14.2451 -14.2431 -14.2428
   -14.2409 -14.2395 -14.2348 -14.2345 -14.2335 -14.2317 -14.2307 -14.2297
   -14.2277 -14.2253 -14.2244 -14.2241 -14.2173 -14.2124 -14.2113 -14.2026
   -10.4974 -10.4842 -10.4728 -10.4669 -10.4641 -10.4543 -10.4486 -10.4426
    -9.6256  -9.5682  -9.5529  -9.4920  -9.4570  -9.4020  -9.3828  -9.3389
    -9.2569  -9.2367  -9.2344  -9.2088  -9.1951  -9.1731  -9.1604  -9.1576
    -9.1339  -9.1284  -9.1101  -9.0857  -9.0756  -9.0526  -9.0288  -9.0008
    -6.9995  -6.9675  -6.9609  -6.9536  -6.9522  -6.9501  -6.9344  -6.9329
    -6.9197  -6.8964  -6.8361  -6.8083  -6.8025  -6.7936  -6.7897  -6.7837
    -5.6721  -5.4951  -5.4878  -5.3122  -5.2369  -5.0838  -5.0617  -4.9426
    -4.8503  -4.8295  -4.8244  -4.8173  -4.8104  -4.8028  -4.7969  -4.7648
    -2.8129  -2.7814  -2.7774  -2.7750  -2.7638  -2.7618  -2.7552  -2.7505
    -2.7428  -2.7372  -2.7304  -2.7279  -2.7234  -2.7171  -2.7056  -2.7030
    -0.8119  -0.7503  -0.7415  -0.6750  -0.5428  -0.4579  -0.4321  -0.4063
    -0.3490  -0.3125  -0.2815  -0.2594   0.0468   0.0750   0.1180   0.1585
     0.2069   0.2328   0.2514   0.3211   0.3896   0.3952   0.4218   0.4280
     0.5151   0.5608   0.6017   0.6464   0.6667   0.7193   0.7296   0.7908
     0.8038   0.8578   0.8798   0.9049   0.9211   0.9736   1.0011   1.0243
     1.0311   1.0473   1.0583   1.0730   1.1171   1.1366   1.1570   1.1681
     1.2148   1.2389   1.2517   1.2614   1.2758   1.2903   1.3135   1.3263
     1.3489   1.3664   1.3887   1.4145   1.4390   1.4652   1.4740   1.5152
     1.5235   1.5518   1.5699   1.5862   1.6220   1.6431   1.6871   1.7228

          k =-0.3750 0.1265-0.3863 (300108 PWs)   bands (ev):

   -17.5396 -17.5008 -17.4725 -17.4503 -17.4439 -17.4384 -17.4315 -17.4310
   -14.2986 -14.2948 -14.2913 -14.2881 -14.2822 -14.2797 -14.2742 -14.2696
   -14.2683 -14.2672 -14.2667 -14.2628 -14.2607 -14.2594 -14.2590 -14.2555
   -14.2539 -14.2525 -14.2511 -14.2466 -14.2453 -14.2451 -14.2431 -14.2428
   -14.2409 -14.2395 -14.2348 -14.2345 -14.2335 -14.2317 -14.2307 -14.2297
   -14.2277 -14.2253 -14.2244 -14.2241 -14.2173 -14.2124 -14.2113 -14.2026
   -10.4975 -10.4844 -10.4733 -10.4670 -10.4648 -10.4543 -10.4473 -10.4419
    -9.6353  -9.5696  -9.5412  -9.4885  -9.4449  -9.4016  -9.3906  -9.3532
    -9.2571  -9.2368  -9.2313  -9.2105  -9.1966  -9.1732  -9.1604  -9.1514
    -9.1388  -9.1211  -9.1112  -9.0857  -9.0797  -9.0539  -9.0264  -8.9995
    -6.9995  -6.9674  -6.9607  -6.9536  -6.9515  -6.9510  -6.9345  -6.9332
    -6.9198  -6.8964  -6.8361  -6.8082  -6.8027  -6.7935  -6.7897  -6.7836
    -5.6706  -5.4966  -5.4835  -5.3167  -5.2405  -5.0814  -5.0685  -4.9287
    -4.8518  -4.8317  -4.8283  -4.8154  -4.8100  -4.8010  -4.7953  -4.7683
    -2.8133  -2.7811  -2.7792  -2.7729  -2.7637  -2.7613  -2.7564  -2.7487
    -2.7439  -2.7384  -2.7320  -2.7279  -2.7230  -2.7173  -2.7041  -2.7024
    -0.8273  -0.7637  -0.7392  -0.6754  -0.5229  -0.4414  -0.4183  -0.3892
    -0.3657  -0.3092  -0.2728  -0.2504   0.0351   0.0575   0.1252   0.1466
     0.1834   0.2275   0.2467   0.3025   0.3869   0.3960   0.4271   0.4371
     0.4996   0.5790   0.6238   0.6487   0.6674   0.7069   0.7243   0.7822
     0.8055   0.8619   0.8801   0.9303   0.9409   0.9788   0.9901   1.0064
     1.0219   1.0355   1.0582   1.0759   1.0991   1.1484   1.1544   1.1861
     1.2125   1.2392   1.2573   1.2662   1.2763   1.2903   1.3072   1.3500
     1.3554   1.3639   1.3761   1.4185   1.4439   1.4676   1.4836   1.5050
     1.5188   1.5296   1.5532   1.5700   1.5940   1.6652   1.7041   1.7639

          k = 0.3750-0.1265-0.3863 (300108 PWs)   bands (ev):

   -17.5396 -17.5008 -17.4725 -17.4503 -17.4439 -17.4384 -17.4315 -17.4310
   -14.2986 -14.2948 -14.2913 -14.2881 -14.2822 -14.2797 -14.2742 -14.2696
   -14.2683 -14.2672 -14.2667 -14.2628 -14.2607 -14.2594 -14.2590 -14.2555
   -14.2539 -14.2525 -14.2511 -14.2466 -14.2453 -14.2451 -14.2431 -14.2428
   -14.2409 -14.2395 -14.2348 -14.2345 -14.2335 -14.2317 -14.2307 -14.2297
   -14.2277 -14.2253 -14.2244 -14.2241 -14.2173 -14.2124 -14.2113 -14.2026
   -10.4976 -10.4843 -10.4732 -10.4671 -10.4649 -10.4542 -10.4474 -10.4419
    -9.6340  -9.5715  -9.5441  -9.4843  -9.4417  -9.4025  -9.3947  -9.3522
    -9.2564  -9.2380  -9.2319  -9.2084  -9.1967  -9.1734  -9.1599  -9.1527
    -9.1373  -9.1245  -9.1075  -9.0881  -9.0792  -9.0533  -9.0265  -8.9994
    -6.9995  -6.9674  -6.9607  -6.9536  -6.9515  -6.9510  -6.9342  -6.9332
    -6.9204  -6.8962  -6.8361  -6.8082  -6.8026  -6.7933  -6.7897  -6.7838
    -5.6707  -5.4968  -5.4835  -5.3167  -5.2399  -5.0803  -5.0694  -4.9292
    -4.8518  -4.8319  -4.8283  -4.8156  -4.8100  -4.8012  -4.7952  -4.7676
    -2.8132  -2.7837  -2.7788  -2.7718  -2.7652  -2.7606  -2.7555  -2.7504
    -2.7443  -2.7345  -2.7337  -2.7265  -2.7234  -2.7161  -2.7052  -2.7028
    -0.8264  -0.7630  -0.7367  -0.6759  -0.5346  -0.4467  -0.4220  -0.3901
    -0.3522  -0.3070  -0.2670  -0.2480   0.0320   0.0593   0.1179   0.1477
     0.1821   0.2264   0.2502   0.3052   0.3867   0.3935   0.4272   0.4383
     0.5061   0.5726   0.6191   0.6368   0.6721   0.7081   0.7283   0.7811
     0.8096   0.8614   0.8835   0.9272   0.9451   0.9793   0.9915   1.0040
     1.0200   1.0438   1.0564   1.0799   1.0891   1.1445   1.1573   1.1915
     1.2097   1.2448   1.2548   1.2637   1.2765   1.2880   1.3086   1.3444
     1.3606   1.3625   1.3826   1.4109   1.4499   1.4719   1.4776   1.5072
     1.5131   1.5244   1.5588   1.5693   1.5960   1.6650   1.7032   1.7643

          k =-0.3750-0.3794 0.1288 (300047 PWs)   bands (ev):

   -17.5396 -17.5008 -17.4725 -17.4503 -17.4439 -17.4384 -17.4315 -17.4310
   -14.3004 -14.2951 -14.2902 -14.2857 -14.2841 -14.2789 -14.2738 -14.2706
   -14.2686 -14.2675 -14.2673 -14.2607 -14.2606 -14.2594 -14.2590 -14.2572
   -14.2539 -14.2525 -14.2511 -14.2462 -14.2453 -14.2451 -14.2431 -14.2428
   -14.2406 -14.2394 -14.2348 -14.2345 -14.2335 -14.2317 -14.2307 -14.2297
   -14.2277 -14.2254 -14.2244 -14.2240 -14.2173 -14.2124 -14.2113 -14.2026
   -10.4976 -10.4838 -10.4724 -10.4673 -10.4646 -10.4547 -10.4470 -10.4434
    -9.6240  -9.5685  -9.5478  -9.4761  -9.4500  -9.4088  -9.3928  -9.3321
    -9.2946  -9.2691  -9.2382  -9.2199  -9.1944  -9.1682  -9.1553  -9.1256
    -9.1216  -9.1151  -9.1008  -9.0857  -9.0719  -9.0499  -9.0367  -9.0102
    -6.9965  -6.9735  -6.9615  -6.9539  -6.9529  -6.9479  -6.9347  -6.9309
    -6.9205  -6.8914  -6.8391  -6.8126  -6.8097  -6.7914  -6.7874  -6.7801
    -5.6761  -5.5094  -5.4793  -5.3204  -5.2422  -5.0697  -5.0424  -4.9510
    -4.8544  -4.8342  -4.8247  -4.8148  -4.8070  -4.8043  -4.7923  -4.7558
    -2.8078  -2.7856  -2.7777  -2.7716  -2.7615  -2.7611  -2.7552  -2.7522
    -2.7449  -2.7411  -2.7337  -2.7277  -2.7223  -2.7176  -2.7060  -2.7031
    -0.8628  -0.7909  -0.7598  -0.7000  -0.5151  -0.4823  -0.4500  -0.3526
    -0.3379  -0.3155  -0.2786  -0.2339   0.0607   0.1307   0.1508   0.2119
     0.2686   0.2869   0.3112   0.3208   0.3404   0.3709   0.3884   0.4302
[...]

   -17.5184 -17.4859 -17.4469 -17.4288 -17.4263 -17.4219 -17.4216 -17.4136
   -14.2920 -14.2863 -14.2843 -14.2814 -14.2785 -14.2757 -14.2740 -14.2722
   -14.2676 -14.2672 -14.2643 -14.2621 -14.2594 -14.2564 -14.2544 -14.2534
   -14.2505 -14.2480 -14.2456 -14.2445 -14.2445 -14.2428 -14.2428 -14.2425
   -14.2412 -14.2354 -14.2349 -14.2345 -14.2343 -14.2320 -14.2312 -14.2280
   -14.2262 -14.2255 -14.2246 -14.2223 -14.2176 -14.2165 -14.2145 -14.2073
   -10.4826 -10.4602 -10.4563 -10.4462 -10.4446 -10.4386 -10.4249 -10.4230
    -9.5742  -9.5354  -9.5178  -9.5147  -9.4691  -9.4524  -9.4291  -9.3801
    -9.2458  -9.2175  -9.1969  -9.1869  -9.1742  -9.1566  -9.1425  -9.1347
    -9.1234  -9.1133  -9.0914  -9.0780  -9.0684  -9.0545  -9.0428  -9.0210
    -6.9755  -6.9482  -6.9451  -6.9403  -6.9368  -6.9320  -6.9212  -6.9154
    -6.9044  -6.8781  -6.8079  -6.7963  -6.7903  -6.7849  -6.7804  -6.7762
    -5.5526  -5.3895  -5.3757  -5.3595  -5.2148  -5.2073  -5.1801  -5.0543
    -4.8315  -4.8132  -4.8024  -4.7967  -4.7933  -4.7837  -4.7705  -4.7651
    -2.7901  -2.7762  -2.7658  -2.7513  -2.7462  -2.7445  -2.7428  -2.7366
    -2.7298  -2.7244  -2.7157  -2.7074  -2.7054  -2.6980  -2.6944  -2.6894
    -0.5470  -0.5316  -0.4962  -0.4468  -0.4237  -0.3726  -0.3580  -0.3378
    -0.3249  -0.3100  -0.2937  -0.2002   0.0602   0.0767   0.1039   0.1217
     0.1880   0.2072   0.2257   0.2308   0.2757   0.2832   0.2970   0.3665
     0.5939   0.6066   0.6258   0.6389   0.6795   0.7092   0.7351   0.7529
     0.7686   0.7934   0.8341   0.8715   0.8799   0.8984   0.9117   0.9249
     0.9561   0.9688   0.9879   1.0085   1.0366   1.0548   1.0734   1.0835
     1.2366   1.2683   1.2764   1.2847   1.3026   1.3211   1.3379   1.3540
     1.3987   1.4156   1.4238   1.4330   1.4498   1.4658   1.4726   1.4991
     1.5096   1.5323   1.5449   1.5575   1.5679   1.5828   1.5880   1.5971

          k =-0.3747 0.3800-0.3866 (300108 PWs)   bands (ev):

   -17.5184 -17.4859 -17.4469 -17.4288 -17.4263 -17.4219 -17.4216 -17.4136
   -14.2920 -14.2863 -14.2843 -14.2814 -14.2785 -14.2757 -14.2740 -14.2722
   -14.2676 -14.2672 -14.2643 -14.2621 -14.2594 -14.2564 -14.2544 -14.2534
   -14.2505 -14.2480 -14.2456 -14.2445 -14.2445 -14.2428 -14.2428 -14.2425
   -14.2412 -14.2354 -14.2349 -14.2345 -14.2343 -14.2320 -14.2312 -14.2280
   -14.2262 -14.2255 -14.2246 -14.2223 -14.2176 -14.2165 -14.2145 -14.2073
   -10.4828 -10.4606 -10.4566 -10.4473 -10.4441 -10.4385 -10.4240 -10.4224
    -9.5954  -9.5296  -9.5070  -9.4939  -9.4578  -9.4545  -9.4369  -9.4015
    -9.2445  -9.2182  -9.1978  -9.1871  -9.1755  -9.1541  -9.1445  -9.1333
    -9.1212  -9.0965  -9.0945  -9.0872  -9.0750  -9.0635  -9.0340  -9.0172
    -6.9756  -6.9478  -6.9448  -6.9405  -6.9370  -6.9319  -6.9219  -6.9155
    -6.9043  -6.8781  -6.8079  -6.7962  -6.7905  -6.7843  -6.7807  -6.7763
    -5.5488  -5.3865  -5.3728  -5.3648  -5.2163  -5.2072  -5.1987  -5.0348
    -4.8331  -4.8164  -4.8041  -4.7977  -4.7913  -4.7841  -4.7693  -4.7640
    -2.7907  -2.7754  -2.7665  -2.7516  -2.7455  -2.7442  -2.7409  -2.7367
    -2.7312  -2.7249  -2.7190  -2.7081  -2.7041  -2.6970  -2.6935  -2.6892
    -0.6163  -0.5350  -0.4826  -0.4526  -0.4194  -0.3717  -0.3433  -0.3246
    -0.2866  -0.2710  -0.2112  -0.1813  -0.0024   0.0220   0.0635   0.0808
     0.1206   0.2082   0.2130   0.2291   0.3068   0.3262   0.3416   0.3521
     0.5562   0.6201   0.6327   0.6720   0.6836   0.7115   0.7377   0.7488
     0.7703   0.8113   0.8368   0.8482   0.8856   0.9009   0.9049   0.9269
     0.9589   0.9726   0.9917   1.0024   1.0254   1.0399   1.0869   1.1131
     1.2365   1.2660   1.2788   1.2894   1.2988   1.3141   1.3328   1.3760
     1.3993   1.4176   1.4291   1.4354   1.4483   1.4629   1.4654   1.4746
     1.5017   1.5137   1.5252   1.5340   1.5434   1.5657   1.6422   1.6615

          k = 0.3747-0.3800-0.3866 (300108 PWs)   bands (ev):

   -17.5184 -17.4859 -17.4469 -17.4288 -17.4263 -17.4219 -17.4216 -17.4136
   -14.2920 -14.2863 -14.2843 -14.2814 -14.2785 -14.2757 -14.2740 -14.2722
   -14.2676 -14.2672 -14.2643 -14.2621 -14.2594 -14.2564 -14.2544 -14.2534
   -14.2505 -14.2480 -14.2456 -14.2445 -14.2445 -14.2428 -14.2428 -14.2425
   -14.2412 -14.2354 -14.2349 -14.2345 -14.2343 -14.2320 -14.2312 -14.2280
   -14.2262 -14.2255 -14.2246 -14.2223 -14.2176 -14.2165 -14.2145 -14.2073
   -10.4828 -10.4606 -10.4565 -10.4474 -10.4443 -10.4382 -10.4239 -10.4225
    -9.5955  -9.5302  -9.5087  -9.4898  -9.4590  -9.4510  -9.4421  -9.4000
    -9.2456  -9.2167  -9.1990  -9.1890  -9.1726  -9.1555  -9.1428  -9.1301
    -9.1242  -9.1009  -9.0935  -9.0856  -9.0764  -9.0606  -9.0348  -9.0172
    -6.9756  -6.9479  -6.9448  -6.9404  -6.9373  -6.9319  -6.9213  -6.9153
    -6.9051  -6.8779  -6.8079  -6.7963  -6.7904  -6.7843  -6.7808  -6.7761
    -5.5491  -5.3873  -5.3720  -5.3642  -5.2168  -5.2061  -5.1999  -5.0345
    -4.8332  -4.8164  -4.8040  -4.7976  -4.7916  -4.7838  -4.7696  -4.7638
    -2.7910  -2.7754  -2.7670  -2.7514  -2.7468  -2.7437  -2.7394  -2.7371
    -2.7311  -2.7257  -2.7194  -2.7066  -2.7034  -2.6973  -2.6931  -2.6898
    -0.6100  -0.5411  -0.4802  -0.4577  -0.4237  -0.3693  -0.3346  -0.3247
    -0.2907  -0.2764  -0.2094  -0.1833   0.0078   0.0286   0.0590   0.0799
     0.1207   0.2030   0.2192   0.2260   0.3103   0.3244   0.3345   0.3523
     0.5581   0.6160   0.6364   0.6715   0.6853   0.7076   0.7360   0.7480
     0.7703   0.8060   0.8390   0.8529   0.8870   0.9001   0.9146   0.9249
     0.9546   0.9700   0.9911   1.0045   1.0263   1.0410   1.0853   1.1147
     1.2352   1.2660   1.2802   1.2874   1.2997   1.3105   1.3395   1.3733
     1.3989   1.4174   1.4276   1.4349   1.4493   1.4565   1.4614   1.4797
     1.5027   1.5190   1.5274   1.5334   1.5424   1.5658   1.6410   1.6616

     highest occupied level (ev):     2.0728

!    total energy              =  -16491.15677396 Ry
     Harris-Foulkes estimate   =  -16491.15677397 Ry
     estimated scf accuracy    <          6.8E-10 Ry

     total all-electron energy =   -677247.826038 Ry

     The total energy is the sum of the following terms:

     one-electron contribution =    -826.92623358 Ry
     hartree contribution      =     599.40055925 Ry
     xc contribution           =    -755.73698934 Ry
     ewald contribution        =   -1153.06400958 Ry
     DFT-D3 Dispersion         =      -0.62610214 Ry
     one-center paw contrib.   =  -14354.20399858 Ry

     convergence has been achieved in   7 iterations

     Forces acting on atoms (cartesian axes, Ry/au):

     atom    1 type  1   force =    -0.00021447   -0.00000819   -0.00018797
     atom    2 type  1   force =    -0.00012418    0.00014240    0.00005395
     atom    3 type  1   force =    -0.00002518   -0.00010171    0.00003552
     atom    4 type  1   force =     0.00002957   -0.00042556   -0.00016648
     atom    5 type  1   force =    -0.00016387   -0.00023981   -0.00014129
     atom    6 type  1   force =    -0.00000065   -0.00032597    0.00003177
     atom    7 type  1   force =    -0.00014824   -0.00014125   -0.00005802
     atom    8 type  1   force =    -0.00015075    0.00010768   -0.00001038
     atom    9 type  2   force =    -0.00013508    0.00013358    0.00017423
     atom   10 type  2   force =     0.00026768    0.00004791   -0.00014165
     atom   11 type  2   force =     0.00005025   -0.00012764    0.00001375
     atom   12 type  2   force =     0.00003385    0.00019240   -0.00011491
     atom   13 type  2   force =     0.00010788    0.00006286    0.00026069
     atom   14 type  2   force =     0.00007991    0.00001646   -0.00004384
     atom   15 type  2   force =    -0.00012990    0.00006989   -0.00009653
     atom   16 type  2   force =     0.00017377   -0.00009372    0.00017555
     atom   17 type  2   force =     0.00015522   -0.00002473    0.00005457
     atom   18 type  2   force =     0.00016603    0.00014161    0.00028262
     atom   19 type  2   force =    -0.00010370   -0.00001211   -0.00021311
     atom   20 type  2   force =    -0.00006917   -0.00004278   -0.00012565
     atom   21 type  2   force =     0.00005367    0.00018119   -0.00006918
     atom   22 type  2   force =     0.00024724   -0.00009104    0.00008509
     atom   23 type  2   force =    -0.00007392    0.00020723    0.00005890
     atom   24 type  2   force =    -0.00004637    0.00017889    0.00017546
     atom   25 type  2   force =     0.00015908    0.00004861   -0.00011228
     atom   26 type  2   force =     0.00000343   -0.00024260   -0.00014639
     atom   27 type  2   force =     0.00012211    0.00007187    0.00024309
     atom   28 type  2   force =     0.00010545    0.00005215   -0.00002458
     atom   29 type  2   force =    -0.00015074    0.00007073   -0.00022243
     atom   30 type  2   force =    -0.00020571    0.00011820   -0.00018657
     atom   31 type  2   force =    -0.00001092   -0.00000486    0.00031890
     atom   32 type  2   force =    -0.00012314    0.00008326    0.00004542
     atom   33 type  3   force =    -0.00020999    0.00001142    0.00012395
     atom   34 type  3   force =     0.00000140    0.00016480   -0.00000191
     atom   35 type  3   force =    -0.00039081    0.00012091   -0.00003797
     atom   36 type  3   force =    -0.00014414   -0.00004801    0.00018421
     atom   37 type  3   force =    -0.00006226   -0.00005384   -0.00003527
     atom   38 type  3   force =    -0.00012873   -0.00008839    0.00006276
     atom   39 type  3   force =     0.00003431   -0.00007727   -0.00000608
     atom   40 type  3   force =    -0.00005813    0.00001257   -0.00008902
     atom   41 type  4   force =    -0.00003559   -0.00009681    0.00000004
     atom   42 type  4   force =     0.00032940   -0.00019695    0.00000049
     atom   43 type  4   force =    -0.00013017   -0.00009449   -0.00007752
     atom   44 type  4   force =    -0.00002490   -0.00004143    0.00010403
     atom   45 type  4   force =    -0.00002563   -0.00007885   -0.00001893
     atom   46 type  4   force =    -0.00004540   -0.00013651    0.00003287
     atom   47 type  4   force =    -0.00007757    0.00000691    0.00000973
     atom   48 type  4   force =     0.00001662    0.00002461    0.00006061
     atom   49 type  5   force =    -0.00010139    0.00001138   -0.00008396
     atom   50 type  5   force =    -0.00001223    0.00009612    0.00011187
     atom   51 type  5   force =     0.00011612    0.00013581   -0.00023446
     atom   52 type  5   force =     0.00002200    0.00005558    0.00025033
     atom   53 type  5   force =     0.00016474   -0.00004849   -0.00009659
     atom   54 type  5   force =    -0.00011210   -0.00008364   -0.00014195
     atom   55 type  5   force =     0.00009608    0.00022036   -0.00007751
     atom   56 type  5   force =    -0.00006182   -0.00019966    0.00003330
     atom   57 type  5   force =    -0.00007969    0.00011323    0.00003121
     atom   58 type  5   force =    -0.00005906   -0.00003502   -0.00007957
     atom   59 type  5   force =     0.00012713    0.00001649    0.00008596
     atom   60 type  5   force =    -0.00009806   -0.00009999    0.00012614
     atom   61 type  5   force =     0.00037813   -0.00027717   -0.00003542
     atom   62 type  5   force =     0.00009976    0.00040975    0.00031424
     atom   63 type  5   force =     0.00000335   -0.00033652   -0.00026408
     atom   64 type  5   force =     0.00017908   -0.00027661   -0.00031267
     atom   65 type  5   force =    -0.00020670    0.00059445    0.00009950
     atom   66 type  5   force =     0.00011852   -0.00031134    0.00021132
     atom   67 type  5   force =    -0.00014363    0.00036806   -0.00014987
     atom   68 type  5   force =     0.00008090   -0.00012099   -0.00021983
     atom   69 type  5   force =     0.00038352    0.00005627    0.00026697
     atom   70 type  5   force =     0.00028926   -0.00017375    0.00000770
     atom   71 type  5   force =    -0.00011916    0.00009681   -0.00011506
     atom   72 type  5   force =     0.00009729    0.00002419    0.00005960
     atom   73 type  5   force =     0.00014512   -0.00000159   -0.00009811
     atom   74 type  5   force =    -0.00002526   -0.00007173   -0.00006872
     atom   75 type  5   force =     0.00001541    0.00000731    0.00008735
     atom   76 type  5   force =     0.00001923   -0.00014045   -0.00013347
     atom   77 type  5   force =     0.00000171    0.00028013   -0.00001583
     atom   78 type  5   force =     0.00006209   -0.00016775    0.00009569
     atom   79 type  5   force =    -0.00005663    0.00012527   -0.00009736
     atom   80 type  5   force =    -0.00015359   -0.00009415    0.00006293
     atom   81 type  5   force =     0.00025227    0.00017152    0.00003283
     atom   82 type  5   force =    -0.00007668    0.00007670    0.00004071
     atom   83 type  5   force =     0.00001718    0.00007564   -0.00000276
     atom   84 type  5   force =    -0.00007631   -0.00023744    0.00001768
     atom   85 type  5   force =    -0.00009114    0.00025174    0.00002195
     atom   86 type  5   force =    -0.00011120   -0.00022674   -0.00004597
     atom   87 type  5   force =     0.00011188    0.00009303    0.00000379
     atom   88 type  5   force =    -0.00001840   -0.00001984   -0.00003327
     atom   89 type  5   force =     0.00001449    0.00008254    0.00001693
     atom   90 type  5   force =    -0.00008690   -0.00019136   -0.00002101
     atom   91 type  5   force =     0.00008798    0.00020693   -0.00023496
     atom   92 type  5   force =     0.00000042   -0.00016360    0.00008433
     atom   93 type  5   force =    -0.00007390    0.00017821    0.00005402
     atom   94 type  5   force =    -0.00015004   -0.00007976   -0.00010758
     atom   95 type  5   force =     0.00000840    0.00030770    0.00020387
     atom   96 type  5   force =     0.00009428   -0.00017126    0.00008953

     Total force =     0.002502     Total SCF correction =     0.000085


     Computing stress (Cartesian axis) and pressure

          total   stress  (Ry/bohr**3)                   (kbar)     P=    0.05
   0.00000077   0.00000615   0.00000173          0.11      0.90      0.25
   0.00000615   0.00000009  -0.00000061          0.90      0.01     -0.09
   0.00000173  -0.00000061   0.00000007          0.25     -0.09      0.01


     number of scf cycles    =  35
     number of bfgs steps    =  34

     enthalpy old            =  -16491.1567615057 Ry
     enthalpy new            =  -16491.1567739648 Ry

     CASE: enthalpy_new < enthalpy_old

     new trust radius        =       0.0080133547 bohr
     new conv_thr            =       0.0000000010 Ry

     new unit-cell volume =  13500.02475 a.u.^3 (  2000.49725 Ang^3 )
     density =      4.12198 g/cm^3

CELL_PARAMETERS (alat= 24.15259000)
   1.000975753   0.000000000   0.000000000
   0.000000000   0.986752297   0.000000000
   0.000000000   0.000000000   0.970089343

ATOMIC_POSITIONS (crystal)
Pb       0.002928738   0.002382792  -0.000538635
Pb       0.000655632   0.003811354   0.500593309
Pb       0.003827353   0.504768666   0.000315716
Pb       0.001545456   0.505885296   0.502602539
Pb       0.503060799   0.002687913   0.001897248
Pb       0.501470053   0.003110647   0.501676044
Pb       0.506540593   0.503885645   0.003657018
Pb       0.505427379   0.504187299   0.502825977
I        0.252703371   0.015335251  -0.035154139
I        0.028468482   0.253102087   0.042258746
I        0.042151261  -0.045655766   0.249668957
I        0.251407927   0.024499841   0.533601045
I        0.021206558   0.255355612   0.457006982
I       -0.042742039   0.051382940   0.750004857
I        0.255025545   0.534193327   0.029363377
I        0.012595310   0.752953496  -0.052574973
I       -0.034084397   0.549189267   0.251118929
I        0.253610717   0.530287930   0.477396515
I        0.018782575   0.755427020   0.544933994
I        0.034937804   0.447337463   0.751334246
I        0.752515075   0.028722910   0.034258368
I        0.513780848   0.252713332  -0.040720211
I        0.460094998   0.050572952   0.251517755
I        0.751352235   0.023802977   0.465094414
I        0.519849907   0.252813052   0.543748983
I        0.535661925  -0.048508952   0.751606516
I        0.755035677   0.516527174  -0.032695306
I        0.531531800   0.752775652   0.045461764
I        0.541329159   0.453922281   0.253341409
I        0.753889077   0.523411287   0.536279414
I        0.524898263   0.753036889   0.456941989
I        0.470897002   0.544565326   0.753355556
C        0.279952589   0.292475967   0.251690117
C        0.284633427   0.288985310   0.749245173
C        0.290643932   0.790956999   0.249753496
C        0.270487702   0.775931070   0.741186864
C        0.788869744   0.290496221   0.248372833
C        0.776534219   0.286800909   0.748583946
C        0.787944833   0.788242623   0.249575334
C        0.783893903   0.795066377   0.745502675
N        0.214374659   0.194679596   0.253155646
N        0.198597920   0.209151198   0.752779745
N        0.200514924   0.715838836   0.254462819
N        0.215209628   0.672045213   0.751140478
N        0.699516782   0.214461452   0.251569753
N        0.707561170   0.191535834   0.753448263
N        0.719391998   0.692594552   0.253738498
N        0.700555095   0.712629835   0.754069762
H        0.166146446   0.191591768   0.185524455
H        0.165282443   0.193935801   0.320186401
H        0.261130769   0.127492276   0.254747167
H        0.329182592   0.291210682   0.179562457
H        0.328849647   0.293562203   0.324044650
H        0.228507296   0.361735407   0.250397524
H        0.201055949   0.159510501   0.685559842
H        0.126292545   0.246192531   0.754754622
H        0.204927028   0.160296057   0.820304879
H        0.275078005   0.337813646   0.676981268
H        0.359563045   0.247415871   0.746758342
H        0.280059524   0.338664542   0.821398316
H        0.200529477   0.665179340   0.188145576
H        0.130328796   0.757177936   0.255358957
H        0.203967289   0.668411404   0.323118800
H        0.283272203   0.839286562   0.176854110
H        0.363345911   0.745375290   0.247856467
H        0.288422645   0.841858141   0.321163373
H        0.217721713   0.629607577   0.679472929
H        0.137499471   0.683199806   0.771894607
H        0.248231600   0.625025070   0.810632811
H        0.233155526   0.821792178   0.676932135
H        0.352538722   0.760810147   0.721773703
H        0.264090377   0.818241591   0.817970703
H        0.700098248   0.164920298   0.184265713
H        0.628900067   0.254800018   0.253573122
H        0.703800942   0.165261039   0.319030477
H        0.781540393   0.339842748   0.176177146
H        0.862010750   0.245709397   0.246083484
H        0.786100591   0.340244270   0.320591403
H        0.657924286   0.188955897   0.686946469
H        0.659934674   0.193586635   0.821522543
H        0.751842823   0.122768989   0.755248541
H        0.824374593   0.282130024   0.675632668
H        0.826699638   0.287617138   0.819970124
H        0.727619201   0.357870518   0.746669161
H        0.670057010   0.690024236   0.186939326
H        0.671333621   0.694306245   0.321551670
H        0.764144938   0.624110203   0.255535822
H        0.835860837   0.784292427   0.176621195
H        0.838088401   0.788761331   0.321019572
H        0.738778671   0.859150746   0.248121301
H        0.702403159   0.661330841   0.688225536
H        0.627292599   0.747531316   0.757267508
H        0.709888444   0.665718207   0.822584981
H        0.770482665   0.841527032   0.672253596
H        0.859958821   0.755790720   0.741658162
H        0.779734004   0.846574442   0.816345572



     Writing output data file MAPbI_vcrelax_PAW9.save/
     NEW-OLD atomic charge density approx. for the potential
     extrapolated charge  400.00316, renormalised to  400.00000

     total cpu time spent up to now is   602594.5 secs

     Self-consistent Calculation

     iteration #  1     ecut=   120.00 Ry     beta= 0.70
     Davidson diagonalization with overlap
     ethr =  1.00E-06,  avg # of iterations =  3.0
