
     Program PWSCF v.6.4 starts on 27Feb2020 at 22:24:59 

     This program is part of the open-source Quantum ESPRESSO suite
     for quantum simulation of materials; please cite
         "P. Giannozzi et al., J. Phys.:Condens. Matter 21 395502 (2009);
         "P. Giannozzi et al., J. Phys.:Condens. Matter 29 465901 (2017);
          URL http://www.quantum-espresso.org", 
     in publications or presentations arising from this work. More details at
     http://www.quantum-espresso.org/quote

     Parallel version (MPI), running on    16 processors

     MPI processes distributed on     1 nodes
     K-points division:     npool     =       4
     R & G space division:  proc/nbgrp/npool/nimage =       4
     Waiting for input...
     Reading input from standard input
     Message from routine read_cards :
     DEPRECATED: no units specified in CELL_PARAMETERS card

     Current dimensions of program PWSCF are:
     Max number of different atomic species (ntypx) = 10
     Max number of k-points (npk) =  40000
     Max angular momentum in pseudopotentials (lmaxx) =  3
               file Pb.pbe-dn-kjpaw_psl.1.0.0.UPF: wavefunction(s)  6S 6P 5D renormalized
               file I.pbe-n-kjpaw_psl.1.0.0.UPF: wavefunction(s)  5S renormalized
               file C.pbe-n-kjpaw_psl.1.0.0.UPF: wavefunction(s)  2S 2P renormalized
               file N.pbe-n-kjpaw_psl.1.0.0.UPF: wavefunction(s)  2S renormalized
               file H.pbe-kjpaw_psl.1.0.0.UPF: wavefunction(s)  1S renormalized

     --------------------------------------------
     Parameters for DFT-D3 Dispersion Correction:
     --------------------------------------------
       Reference C6 values for interpolation: 

         atom   Coordination number   C6
         H          0.912             6.05
         H          0.000            15.18
         C          0.000            98.23
         C          0.987            86.49
         C          1.998            58.72
         C          2.999            51.56
         C          3.984            36.41
         N          0.000            50.54
         N          0.994            44.25
         N          2.014            39.35
         N          2.990            31.16
         I          0.000           703.93
         I          0.997           717.00
         Pb         0.000          1477.63
         Pb         0.938          1266.00
         Pb         1.936          1088.91
         Pb         2.908          1048.37
         Pb         3.910           910.57

       Values used:

         atom   Coordination number  R0_AB[au]  C6      C8
         Pb         4.825            4.041    910.57 144158.36
         Pb         4.822            4.041    910.57 144158.37
         Pb         4.837            4.041    910.57 144158.34
         Pb         4.857            4.041    910.57 144158.30
         Pb         4.881            4.041    910.57 144158.27
         Pb         4.866            4.041    910.57 144158.29
         Pb         4.912            4.041    910.57 144158.24
         Pb         4.906            4.041    910.57 144158.24
         I          1.971            3.532    717.00  65856.00
         I          1.983            3.532    717.00  65856.00
         I          1.901            3.532    717.00  65855.99
         I          1.976            3.532    717.00  65856.00
         I          1.993            3.532    717.00  65856.00
         I          1.928            3.532    717.00  65855.99
         I          1.946            3.532    717.00  65855.99
         I          1.956            3.532    717.00  65856.00
         I          1.918            3.532    717.00  65855.99
         I          1.971            3.532    717.00  65856.00
         I          1.973            3.532    717.00  65856.00
         I          1.970            3.532    717.00  65856.00
         I          1.962            3.532    717.00  65856.00
         I          2.028            3.532    717.00  65856.00
         I          1.937            3.532    717.00  65855.99
         I          1.987            3.532    717.00  65856.00
         I          2.031            3.532    717.00  65856.00
         I          1.941            3.532    717.00  65855.99
         I          2.009            3.532    717.00  65856.00
         I          2.018            3.532    717.00  65856.00
         I          1.946            3.532    717.00  65855.99
         I          2.007            3.532    717.00  65856.00
         I          2.050            3.532    717.00  65856.00
         I          2.015            3.532    717.00  65856.00
         C          4.035            2.750     36.59   1058.39
         C          4.038            2.750     36.59   1058.28
         C          4.039            2.750     36.59   1058.21
         C          4.034            2.750     36.60   1058.42
         C          4.037            2.750     36.59   1058.32
         C          4.043            2.750     36.58   1058.05
         C          4.040            2.750     36.59   1058.18
         C          4.044            2.750     36.58   1058.01
         N          4.059            2.478     31.16    687.49
         N          4.057            2.478     31.16    687.49
         N          4.055            2.478     31.16    687.49
         N          4.060            2.478     31.16    687.49
         N          4.062            2.478     31.16    687.49
         N          4.054            2.478     31.16    687.49
         N          4.056            2.478     31.16    687.49
         N          4.058            2.478     31.16    687.49
         H          1.092            2.062      6.12     73.97
         H          1.100            2.062      6.12     73.93
         H          1.026            2.062      6.16     74.46
         H          1.008            2.062      6.17     74.63
         H          1.008            2.062      6.17     74.64
         H          1.005            2.062      6.18     74.66
         H          1.091            2.062      6.12     73.97
         H          1.023            2.062      6.16     74.48
         H          1.081            2.062      6.12     74.03
         H          1.008            2.062      6.17     74.64
         H          1.010            2.062      6.17     74.61
         H          1.008            2.062      6.17     74.64
         H          1.077            2.062      6.13     74.06
         H          1.024            2.062      6.16     74.48
         H          1.088            2.062      6.12     73.99
         H          1.009            2.062      6.17     74.62
         H          1.008            2.062      6.17     74.63
         H          1.008            2.062      6.17     74.63
         H          1.030            2.062      6.16     74.42
         H          1.033            2.062      6.15     74.39
         H          1.036            2.062      6.15     74.37
         H          1.014            2.062      6.17     74.58
         H          1.015            2.062      6.17     74.56
         H          1.015            2.062      6.17     74.56
         H          1.092            2.062      6.12     73.97
         H          1.029            2.062      6.16     74.43
         H          1.107            2.062      6.11     73.89
         H          1.009            2.062      6.17     74.63
         H          1.007            2.062      6.17     74.64
         H          1.008            2.062      6.17     74.63
         H          1.088            2.062      6.12     73.99
         H          1.070            2.062      6.13     74.11
         H          1.022            2.062      6.16     74.50
         H          1.009            2.062      6.17     74.63
         H          1.009            2.062      6.17     74.63
         H          1.011            2.062      6.17     74.61
         H          1.087            2.062      6.12     74.00
         H          1.103            2.062      6.11     73.91
         H          1.022            2.062      6.16     74.49
         H          1.009            2.062      6.17     74.63
         H          1.008            2.062      6.17     74.63
         H          1.008            2.062      6.17     74.63
         H          1.074            2.062      6.13     74.08
         H          1.023            2.062      6.16     74.48
         H          1.075            2.062      6.13     74.08
         H          1.008            2.062      6.17     74.63
         H          1.014            2.062      6.17     74.57
         H          1.009            2.062      6.17     74.62

         Molecular C6 ( Ry / a.u.^6 ) =   1196391.43


     Subspace diagonalization in iterative solution of the eigenvalue problem:
     a serial algorithm will be used


     Parallelization info
     --------------------
     sticks:   dense  smooth     PW     G-vecs:    dense   smooth      PW
     Min        5496    5496   1416               601846   601846   78800
     Max        5497    5497   1417               601847   601847   78803
     Sum       21987   21987   5665              2407387  2407387  315203



     bravais-lattice index     =            0
     lattice parameter (alat)  =      24.1526  a.u.
     unit-cell volume          =   13556.6914 (a.u.)^3
     number of atoms/cell      =           96
     number of atomic types    =            5
     number of electrons       =       400.00
     number of Kohn-Sham states=          200
     kinetic-energy cutoff     =     120.0000  Ry
     charge density cutoff     =     480.0000  Ry
     convergence threshold     =      1.0E-07
     mixing beta               =       0.7000
     number of iterations used =            8  plain     mixing
     Exchange-correlation      = SLA PW PBX PBC ( 1  4  3  4 0 0)
     nstep                     =          150


     celldm(1)=  24.152590  celldm(2)=   0.000000  celldm(3)=   0.000000
     celldm(4)=   0.000000  celldm(5)=   0.000000  celldm(6)=   0.000000

     crystal axes: (cart. coord. in units of alat)
               a(1) = (   0.998169   0.000000   0.000000 )  
               a(2) = (   0.000000   0.987470   0.000000 )  
               a(3) = (   0.000000   0.000000   0.976191 )  

     reciprocal axes: (cart. coord. in units 2 pi/alat)
               b(1) = (  1.001834  0.000000  0.000000 )  
               b(2) = (  0.000000  1.012689  0.000000 )  
               b(3) = (  0.000000  0.000000  1.024390 )  


     PseudoPot. # 1 for Pb read from file:
     ../Pseudopotential/Pb.pbe-dn-kjpaw_psl.1.0.0.UPF
     MD5 check sum: 684fc8fbce61a260853528575e4d9ab7
     Pseudo is Projector augmented-wave + core cor, Zval = 14.0
     Generated using "atomic" code by A. Dal Corso v.6.3
     Shape of augmentation charge: PSQ
     Using radial grid of 1281 points,  6 beta functions with: 
                l(1) =   0
                l(2) =   0
                l(3) =   1
                l(4) =   1
                l(5) =   2
                l(6) =   2
     Q(r) pseudized with 0 coefficients 


     PseudoPot. # 2 for I  read from file:
     ../Pseudopotential/I.pbe-n-kjpaw_psl.1.0.0.UPF
     MD5 check sum: cd3d296c3308a581e1559a0c8a554cb5
     Pseudo is Projector augmented-wave + core cor, Zval =  7.0
     Generated using "atomic" code by A. Dal Corso v.6.3
     Shape of augmentation charge: PSQ
     Using radial grid of 1247 points,  6 beta functions with: 
                l(1) =   0
                l(2) =   0
                l(3) =   1
                l(4) =   1
                l(5) =   2
                l(6) =   2
     Q(r) pseudized with 0 coefficients 


     PseudoPot. # 3 for C  read from file:
     ../Pseudopotential/C.pbe-n-kjpaw_psl.1.0.0.UPF
     MD5 check sum: 5f16ad9a65e90284d1d834d4ab3b0f7d
     Pseudo is Projector augmented-wave + core cor, Zval =  4.0
     Generated using "atomic" code by A. Dal Corso v.6.3
     Shape of augmentation charge: PSQ
     Using radial grid of 1073 points,  4 beta functions with: 
                l(1) =   0
                l(2) =   0
                l(3) =   1
                l(4) =   1
     Q(r) pseudized with 0 coefficients 


     PseudoPot. # 4 for N  read from file:
     ../Pseudopotential/N.pbe-n-kjpaw_psl.1.0.0.UPF
     MD5 check sum: 14c48229446f9f2d411169a3abcbc3fa
     Pseudo is Projector augmented-wave + core cor, Zval =  5.0
     Generated using "atomic" code by A. Dal Corso v.6.3
     Shape of augmentation charge: PSQ
     Using radial grid of 1085 points,  4 beta functions with: 
                l(1) =   0
                l(2) =   0
                l(3) =   1
                l(4) =   1
     Q(r) pseudized with 0 coefficients 


     PseudoPot. # 5 for H  read from file:
     ../Pseudopotential/H.pbe-kjpaw_psl.1.0.0.UPF
     MD5 check sum: d81a744832360e4a8af0b0b5b123bc2a
     Pseudo is Projector augmented-wave, Zval =  1.0
     Generated using "atomic" code by A. Dal Corso v.6.3MaX
     Shape of augmentation charge: PSQ
     Using radial grid of  929 points,  2 beta functions with: 
                l(1) =   0
                l(2) =   0
     Q(r) pseudized with 0 coefficients 


     atomic species   valence    mass     pseudopotential
        Pb            14.00   207.97600     Pb( 1.00)
        I              7.00   126.90400     I ( 1.00)
        C              4.00    12.00000     C ( 1.00)
        N              5.00    14.00300     N ( 1.00)
        H              1.00     1.00700     H ( 1.00)

     No symmetry found



   Cartesian axes

     site n.     atom                  positions (alat units)
         1           Pb  tau(   1) = (   0.0017676   0.0044740   0.0018215  )
         2           Pb  tau(   2) = (   0.0016149   0.0052917   0.4899397  )
         3           Pb  tau(   3) = (   0.0028500   0.5007135   0.0007329  )
         4           Pb  tau(   4) = (   0.0011205   0.5012735   0.4905341  )
         5           Pb  tau(   5) = (   0.5025810   0.0047045   0.0018030  )
         6           Pb  tau(   6) = (   0.5024846   0.0048900   0.4907521  )
         7           Pb  tau(   7) = (   0.5051344   0.4978690   0.0031746  )
         8           Pb  tau(   8) = (   0.5032792   0.5006636   0.4897096  )
         9           I   tau(   9) = (   0.2540106   0.0104248  -0.0300525  )
        10           I   tau(  10) = (   0.0333848   0.2508795   0.0318858  )
        11           I   tau(  11) = (   0.0411492  -0.0425446   0.2447081  )
        12           I   tau(  12) = (   0.2532505   0.0217001   0.5196025  )
        13           I   tau(  13) = (   0.0241129   0.2536190   0.4537353  )
        14           I   tau(  14) = (  -0.0429257   0.0463406   0.7332920  )
        15           I   tau(  15) = (   0.2554215   0.5299056   0.0197272  )
        16           I   tau(  16) = (   0.0068571   0.7454391  -0.0445498  )
        17           I   tau(  17) = (  -0.0363759   0.5393548   0.2452851  )
        18           I   tau(  18) = (   0.2549411   0.5255620   0.4698414  )
        19           I   tau(  19) = (   0.0193237   0.7471894   0.5282615  )
        20           I   tau(  20) = (   0.0350710   0.4508639   0.7329455  )
        21           I   tau(  21) = (   0.7523150   0.0329435   0.0333565  )
        22           I   tau(  22) = (   0.5053821   0.2503979  -0.0337793  )
        23           I   tau(  23) = (   0.4586155   0.0427375   0.2458353  )
        24           I   tau(  24) = (   0.7521621   0.0248536   0.4546542  )
        25           I   tau(  25) = (   0.5142066   0.2519940   0.5213666  )
        26           I   tau(  26) = (   0.5403564  -0.0390112   0.7344553  )
        27           I   tau(  27) = (   0.7542258   0.5013908  -0.0305763  )
        28           I   tau(  28) = (   0.5300939   0.7443956   0.0297665  )
        29           I   tau(  29) = (   0.5390988   0.4518733   0.2455405  )
        30           I   tau(  30) = (   0.7527956   0.5153279   0.5194791  )
        31           I   tau(  31) = (   0.5228275   0.7462135   0.4532891  )
        32           I   tau(  32) = (   0.4709869   0.5294355   0.7344291  )
        33           C   tau(  33) = (   0.2857842   0.2855418   0.2422567  )
        34           C   tau(  34) = (   0.2794142   0.2838930   0.7302407  )
        35           C   tau(  35) = (   0.2859508   0.7797869   0.2430867  )
        36           C   tau(  36) = (   0.2827528   0.7696634   0.7277323  )
        37           C   tau(  37) = (   0.7830079   0.2869769   0.2424773  )
        38           C   tau(  38) = (   0.7826892   0.2843195   0.7291076  )
        39           C   tau(  39) = (   0.7894910   0.7765780   0.2415517  )
        40           C   tau(  40) = (   0.7824988   0.7777895   0.7274741  )
        41           N   tau(  41) = (   0.2065470   0.1996316   0.2476294  )
        42           N   tau(  42) = (   0.2031338   0.1953763   0.7365627  )
        43           N   tau(  43) = (   0.2067793   0.6941253   0.2473943  )
        44           N   tau(  44) = (   0.2119959   0.6770439   0.7367067  )
        45           N   tau(  45) = (   0.6987728   0.2059416   0.2488531  )
        46           N   tau(  46) = (   0.6961655   0.2057046   0.7328613  )
        47           N   tau(  47) = (   0.7049881   0.6958468   0.2467080  )
        48           N   tau(  48) = (   0.7047771   0.6917762   0.7387177  )
        49           H   tau(  49) = (   0.1575996   0.2016482   0.1821103  )
        50           H   tau(  50) = (   0.1582453   0.2079830   0.3132825  )
        51           H   tau(  51) = (   0.2423018   0.1270291   0.2512958  )
        52           H   tau(  52) = (   0.3352149   0.2731081   0.1733938  )
        53           H   tau(  53) = (   0.3337735   0.2831311   0.3131636  )
        54           H   tau(  54) = (   0.2451287   0.3607228   0.2359064  )
        55           H   tau(  55) = (   0.2101393   0.1458057   0.6718223  )
        56           H   tau(  56) = (   0.1266412   0.2215557   0.7392914  )
        57           H   tau(  57) = (   0.2159564   0.1490464   0.8027550  )
        58           H   tau(  58) = (   0.2632459   0.3289008   0.6591040  )
        59           H   tau(  59) = (   0.3587562   0.2518136   0.7276561  )
        60           H   tau(  60) = (   0.2699502   0.3333331   0.7995430  )
        61           H   tau(  61) = (   0.2111991   0.6461136   0.1813968  )
        62           H   tau(  62) = (   0.1314340   0.7233845   0.2515217  )
        63           H   tau(  63) = (   0.2190065   0.6469872   0.3128656  )
        64           H   tau(  64) = (   0.2698938   0.8276678   0.1741879  )
        65           H   tau(  65) = (   0.3640607   0.7452774   0.2389129  )
        66           H   tau(  66) = (   0.2800367   0.8273612   0.3139123  )
        67           H   tau(  67) = (   0.2116093   0.6328753   0.6687390  )
        68           H   tau(  68) = (   0.1358053   0.6998932   0.7518171  )
        69           H   tau(  69) = (   0.2341659   0.6280185   0.7975597  )
        70           H   tau(  70) = (   0.2581805   0.8175800   0.6611786  )
        71           H   tau(  71) = (   0.3626351   0.7414056   0.7164439  )
        72           H   tau(  72) = (   0.2772303   0.8156315   0.7996770  )
        73           H   tau(  73) = (   0.7016903   0.1558249   0.1842708  )
        74           H   tau(  74) = (   0.6253024   0.2399168   0.2517497  )
        75           H   tau(  75) = (   0.7080379   0.1587511   0.3152337  )
        76           H   tau(  76) = (   0.7707580   0.3339408   0.1717890  )
        77           H   tau(  77) = (   0.8591173   0.2478269   0.2390677  )
        78           H   tau(  78) = (   0.7786678   0.3369875   0.3118732  )
        79           H   tau(  79) = (   0.6476189   0.2116804   0.6672320  )
        80           H   tau(  80) = (   0.6484335   0.2169910   0.7981861  )
        81           H   tau(  81) = (   0.7249662   0.1302219   0.7359045  )
        82           H   tau(  82) = (   0.8310215   0.2686375   0.6602273  )
        83           H   tau(  83) = (   0.8301407   0.2765511   0.7998939  )
        84           H   tau(  84) = (   0.7488390   0.3627841   0.7247786  )
        85           H   tau(  85) = (   0.6551237   0.7005842   0.1819875  )
        86           H   tau(  86) = (   0.6579818   0.7064233   0.3128699  )
        87           H   tau(  87) = (   0.7360740   0.6213404   0.2493595  )
        88           H   tau(  88) = (   0.8372505   0.7620023   0.1719941  )
        89           H   tau(  89) = (   0.8385159   0.7695971   0.3113960  )
        90           H   tau(  90) = (   0.7534643   0.8541579   0.2380960  )
        91           H   tau(  91) = (   0.7065486   0.6416994   0.6744873  )
        92           H   tau(  92) = (   0.6296489   0.7203012   0.7456589  )
        93           H   tau(  93) = (   0.7194422   0.6452862   0.8040659  )
        94           H   tau(  94) = (   0.7632690   0.8234812   0.6579014  )
        95           H   tau(  95) = (   0.8603571   0.7437784   0.7196129  )
        96           H   tau(  96) = (   0.7790666   0.8276345   0.7966779  )

     number of k points=    32
                       cart. coord. in units 2pi/alat
        k(    1) = (   0.1252293   0.1265862   0.1280487), wk =   0.0625000
        k(    2) = (   0.1252293   0.1265862   0.3841462), wk =   0.0625000
        k(    3) = (   0.1252293   0.3797585   0.1280487), wk =   0.0625000
        k(    4) = (   0.1252293   0.3797585   0.3841462), wk =   0.0625000
        k(    5) = (   0.3756878   0.1265862   0.1280487), wk =   0.0625000
        k(    6) = (   0.3756878   0.1265862   0.3841462), wk =   0.0625000
        k(    7) = (   0.3756878   0.3797585   0.1280487), wk =   0.0625000
        k(    8) = (   0.3756878   0.3797585   0.3841462), wk =   0.0625000
        k(    9) = (  -0.1252293  -0.1265862   0.1280487), wk =   0.0625000
        k(   10) = (  -0.1252293   0.1265862  -0.1280487), wk =   0.0625000
        k(   11) = (   0.1252293  -0.1265862  -0.1280487), wk =   0.0625000
        k(   12) = (  -0.1252293  -0.1265862   0.3841462), wk =   0.0625000
        k(   13) = (  -0.1252293   0.1265862  -0.3841462), wk =   0.0625000
        k(   14) = (   0.1252293  -0.1265862  -0.3841462), wk =   0.0625000
        k(   15) = (  -0.1252293  -0.3797585   0.1280487), wk =   0.0625000
        k(   16) = (  -0.1252293   0.3797585  -0.1280487), wk =   0.0625000
        k(   17) = (   0.1252293  -0.3797585  -0.1280487), wk =   0.0625000
        k(   18) = (  -0.1252293  -0.3797585   0.3841462), wk =   0.0625000
        k(   19) = (  -0.1252293   0.3797585  -0.3841462), wk =   0.0625000
        k(   20) = (   0.1252293  -0.3797585  -0.3841462), wk =   0.0625000
        k(   21) = (  -0.3756878  -0.1265862   0.1280487), wk =   0.0625000
        k(   22) = (  -0.3756878   0.1265862  -0.1280487), wk =   0.0625000
        k(   23) = (   0.3756878  -0.1265862  -0.1280487), wk =   0.0625000
        k(   24) = (  -0.3756878  -0.1265862   0.3841462), wk =   0.0625000
        k(   25) = (  -0.3756878   0.1265862  -0.3841462), wk =   0.0625000
        k(   26) = (   0.3756878  -0.1265862  -0.3841462), wk =   0.0625000
        k(   27) = (  -0.3756878  -0.3797585   0.1280487), wk =   0.0625000
        k(   28) = (  -0.3756878   0.3797585  -0.1280487), wk =   0.0625000
        k(   29) = (   0.3756878  -0.3797585  -0.1280487), wk =   0.0625000
        k(   30) = (  -0.3756878  -0.3797585   0.3841462), wk =   0.0625000
        k(   31) = (  -0.3756878   0.3797585  -0.3841462), wk =   0.0625000
        k(   32) = (   0.3756878  -0.3797585  -0.3841462), wk =   0.0625000

     Dense  grid:  2407387 G-vectors     FFT dimensions: ( 180, 180, 180)

     Estimated max dynamical RAM per process >       6.12 GB

     Estimated total dynamical RAM >      97.86 GB

     Initial potential from superposition of free atoms

     starting charge  399.97850, renormalised to  400.00000
     Starting wfcs are  280 randomized atomic wfcs
     Checking if some PAW data can be deallocated... 

     total cpu time spent up to now is     3630.6 secs

     Self-consistent Calculation

     iteration #  1     ecut=   120.00 Ry     beta= 0.70
     Davidson diagonalization with overlap
     ethr =  1.00E-02,  avg # of iterations =  2.0

     total cpu time spent up to now is    10315.8 secs

     total energy              =  -16489.36508679 Ry
     Harris-Foulkes estimate   =  -16492.76130173 Ry
     estimated scf accuracy    <       5.70608936 Ry

     iteration #  2     ecut=   120.00 Ry     beta= 0.70
     Davidson diagonalization with overlap
     ethr =  1.43E-03,  avg # of iterations =  3.0

     total cpu time spent up to now is    19469.0 secs

     total energy              =  -16490.60427031 Ry
     Harris-Foulkes estimate   =  -16491.82971193 Ry
     estimated scf accuracy    <       2.17759396 Ry

     iteration #  3     ecut=   120.00 Ry     beta= 0.70
     Davidson diagonalization with overlap
     ethr =  5.44E-04,  avg # of iterations =  3.0

     total cpu time spent up to now is    26556.4 secs

     total energy              =  -16491.11886852 Ry
     Harris-Foulkes estimate   =  -16491.16284438 Ry
     estimated scf accuracy    <       0.10138579 Ry

     iteration #  4     ecut=   120.00 Ry     beta= 0.70
     Davidson diagonalization with overlap
     ethr =  2.53E-05,  avg # of iterations =  3.0

     total cpu time spent up to now is    35059.3 secs

     total energy              =  -16491.14344492 Ry
     Harris-Foulkes estimate   =  -16491.15362302 Ry
     estimated scf accuracy    <       0.01865706 Ry

     iteration #  5     ecut=   120.00 Ry     beta= 0.70
     Davidson diagonalization with overlap
     ethr =  4.66E-06,  avg # of iterations =  2.1

     total cpu time spent up to now is    42853.5 secs

     total energy              =  -16491.14731327 Ry
     Harris-Foulkes estimate   =  -16491.14808545 Ry
     estimated scf accuracy    <       0.00138170 Ry

     iteration #  6     ecut=   120.00 Ry     beta= 0.70
     Davidson diagonalization with overlap
     ethr =  3.45E-07,  avg # of iterations =  3.0

     total cpu time spent up to now is    51944.9 secs

     total energy              =  -16491.14769508 Ry
     Harris-Foulkes estimate   =  -16491.14813828 Ry
     estimated scf accuracy    <       0.00103864 Ry

     iteration #  7     ecut=   120.00 Ry     beta= 0.70
     Davidson diagonalization with overlap
     ethr =  2.60E-07,  avg # of iterations =  2.4

     total cpu time spent up to now is    58858.2 secs

     total energy              =  -16491.14790814 Ry
     Harris-Foulkes estimate   =  -16491.14792419 Ry
     estimated scf accuracy    <       0.00004190 Ry

     iteration #  8     ecut=   120.00 Ry     beta= 0.70
     Davidson diagonalization with overlap
     ethr =  1.05E-08,  avg # of iterations =  3.0

     total cpu time spent up to now is    68257.4 secs

     total energy              =  -16491.14792196 Ry
     Harris-Foulkes estimate   =  -16491.14792639 Ry
     estimated scf accuracy    <       0.00000997 Ry

     iteration #  9     ecut=   120.00 Ry     beta= 0.70
     Davidson diagonalization with overlap
     ethr =  2.49E-09,  avg # of iterations =  3.0

     total cpu time spent up to now is    75621.8 secs

     total energy              =  -16491.14792421 Ry
     Harris-Foulkes estimate   =  -16491.14792485 Ry
     estimated scf accuracy    <       0.00000136 Ry

     iteration # 10     ecut=   120.00 Ry     beta= 0.70
     Davidson diagonalization with overlap
     ethr =  3.40E-10,  avg # of iterations =  3.4

     total cpu time spent up to now is    83354.7 secs

     total energy              =  -16491.14792456 Ry
     Harris-Foulkes estimate   =  -16491.14792465 Ry
     estimated scf accuracy    <       0.00000019 Ry

     iteration # 11     ecut=   120.00 Ry     beta= 0.70
     Davidson diagonalization with overlap
     ethr =  4.75E-11,  avg # of iterations =  3.2

     total cpu time spent up to now is    90920.3 secs

     End of self-consistent calculation

          k = 0.1252 0.1266 0.1280 (300913 PWs)   bands (ev):

   -17.5882 -17.5542 -17.5455 -17.4772 -17.4641 -17.4240 -17.4235 -17.3936
   -14.3197 -14.3183 -14.3160 -14.3070 -14.2953 -14.2871 -14.2863 -14.2823
   -14.2795 -14.2794 -14.2772 -14.2769 -14.2750 -14.2718 -14.2716 -14.2707
   -14.2669 -14.2624 -14.2569 -14.2545 -14.2527 -14.2516 -14.2494 -14.2470
   -14.2456 -14.2450 -14.2450 -14.2431 -14.2393 -14.2382 -14.2330 -14.2315
   -14.2285 -14.2240 -14.2183 -14.2157 -14.2140 -14.2128 -14.2066 -14.2041
   -10.5483 -10.5374 -10.5197 -10.5044 -10.4966 -10.4853 -10.4815 -10.4547
    -9.7325  -9.5947  -9.5261  -9.5142  -9.4214  -9.3880  -9.3485  -9.3277
    -9.3190  -9.2946  -9.2771  -9.2628  -9.2424  -9.2229  -9.2043  -9.1868
    -9.1806  -9.1715  -9.1335  -9.0870  -9.0654  -9.0468  -9.0160  -8.9780
    -7.0275  -7.0120  -6.9967  -6.9838  -6.9680  -6.9643  -6.9462  -6.9205
    -6.9148  -6.8967  -6.8727  -6.8288  -6.8009  -6.7904  -6.7668  -6.7482
    -5.9321  -5.4925  -5.4874  -5.4562  -5.0658  -5.0468  -5.0306  -4.9176
    -4.9104  -4.8968  -4.8629  -4.8467  -4.8418  -4.8329  -4.8082  -4.5800
    -2.8621  -2.8359  -2.8204  -2.8088  -2.7949  -2.7870  -2.7721  -2.7702
    -2.7638  -2.7576  -2.7540  -2.7470  -2.7373  -2.7274  -2.7202  -2.7124
    -0.9230  -0.9106  -0.8894  -0.8567  -0.7910  -0.7854  -0.7707  -0.7311
    -0.7188  -0.6633  -0.6347  -0.5383   0.1907   0.2511   0.2633   0.3040
     0.3680   0.3746   0.4271   0.4694   0.4791   0.5557   0.5649   0.6032
     0.6112   0.6822   0.6984   0.7613   0.7757   0.8015   0.8275   0.8802
     0.8998   0.9171   0.9300   0.9450   0.9640   0.9899   1.0060   1.0219
     1.0487   1.0506   1.0824   1.0899   1.0961   1.1380   1.1423   1.1589
     1.1799   1.1957   1.2056   1.2169   1.2292   1.2353   1.2482   1.2717
     1.2814   1.2957   1.3205   1.3940   1.4482   1.4738   1.5006   1.5557
     1.5966   1.6208   1.6304   1.6444   1.7265   1.7776   1.8372   2.0608

          k = 0.1252 0.1266 0.3841 (300919 PWs)   bands (ev):

   -17.5882 -17.5542 -17.5455 -17.4772 -17.4641 -17.4239 -17.4236 -17.3936
   -14.3193 -14.3174 -14.3146 -14.3097 -14.2951 -14.2871 -14.2848 -14.2830
   -14.2794 -14.2783 -14.2772 -14.2769 -14.2750 -14.2719 -14.2717 -14.2716
   -14.2669 -14.2635 -14.2569 -14.2545 -14.2526 -14.2514 -14.2494 -14.2456
   -14.2453 -14.2450 -14.2447 -14.2431 -14.2406 -14.2392 -14.2330 -14.2315
   -14.2285 -14.2240 -14.2184 -14.2157 -14.2140 -14.2128 -14.2066 -14.2041
   -10.5474 -10.5371 -10.5205 -10.5023 -10.4982 -10.4857 -10.4818 -10.4549
    -9.7021  -9.6448  -9.5014  -9.4850  -9.4556  -9.4330  -9.3464  -9.3421
    -9.3143  -9.3014  -9.2734  -9.2600  -9.2291  -9.2159  -9.1890  -9.1795
    -9.1727  -9.1334  -9.1119  -9.0895  -9.0827  -9.0424  -9.0368  -9.0013
    -7.0277  -7.0115  -6.9950  -6.9850  -6.9652  -6.9621  -6.9462  -6.9260
    -6.9160  -6.8976  -6.8704  -6.8263  -6.8005  -6.7836  -6.7730  -6.7486
    -5.8128  -5.6290  -5.3790  -5.3446  -5.2033  -5.1699  -4.9715  -4.9243
    -4.9033  -4.8938  -4.8698  -4.8473  -4.8433  -4.8208  -4.8025  -4.7071
    -2.8600  -2.8339  -2.8190  -2.8106  -2.7949  -2.7793  -2.7691  -2.7658
    -2.7622  -2.7593  -2.7526  -2.7473  -2.7385  -2.7336  -2.7291  -2.7121
    -0.8900  -0.8729  -0.8510  -0.8111  -0.7541  -0.7511  -0.6976  -0.6919
    -0.5047  -0.3793  -0.3703  -0.2279   0.0281   0.1324   0.1433   0.2415
     0.2877   0.3176   0.3590   0.3798   0.4167   0.4315   0.4484   0.4960
     0.5077   0.5636   0.7043   0.7194   0.7422   0.7672   0.8438   0.8647
     0.8794   0.8937   0.9103   0.9387   0.9789   0.9913   1.0129   1.0289
     1.0477   1.0708   1.0843   1.0944   1.1097   1.1218   1.1356   1.1575
     1.1669   1.1924   1.2117   1.2212   1.2333   1.2513   1.2575   1.2809
     1.3139   1.3264   1.3610   1.3856   1.4018   1.4191   1.4600   1.5096
     1.5706   1.5917   1.6145   1.6298   1.6430   1.6583   1.7644   1.8591

          k = 0.1252 0.3798 0.1280 (300887 PWs)   bands (ev):

   -17.5882 -17.5542 -17.5455 -17.4772 -17.4641 -17.4240 -17.4235 -17.3936
   -14.3196 -14.3180 -14.3155 -14.3067 -14.2952 -14.2878 -14.2861 -14.2820
   -14.2797 -14.2793 -14.2772 -14.2769 -14.2750 -14.2722 -14.2716 -14.2702
   -14.2670 -14.2625 -14.2570 -14.2545 -14.2529 -14.2519 -14.2494 -14.2474
   -14.2456 -14.2450 -14.2450 -14.2431 -14.2393 -14.2384 -14.2330 -14.2315
   -14.2285 -14.2240 -14.2183 -14.2157 -14.2140 -14.2128 -14.2066 -14.2041
   -10.5478 -10.5368 -10.5181 -10.5043 -10.4968 -10.4853 -10.4836 -10.4556
    -9.6941  -9.5959  -9.5647  -9.4954  -9.4755  -9.3935  -9.3897  -9.3363
    -9.3299  -9.2860  -9.2652  -9.2450  -9.2288  -9.2033  -9.1931  -9.1824
    -9.1497  -9.1336  -9.1233  -9.0938  -9.0749  -9.0656  -9.0248  -8.9970
    -7.0276  -7.0120  -6.9965  -6.9838  -6.9680  -6.9642  -6.9463  -6.9203
    -6.9147  -6.8967  -6.8725  -6.8289  -6.8013  -6.7902  -6.7673  -6.7486
    -5.8085  -5.6050  -5.3776  -5.3715  -5.1887  -5.1761  -4.9797  -4.9214
    -4.9110  -4.8978  -4.8624  -4.8498  -4.8398  -4.8257  -4.8075  -4.7075
    -2.8547  -2.8398  -2.8161  -2.8053  -2.7985  -2.7830  -2.7710  -2.7674
    -2.7636  -2.7601  -2.7570  -2.7495  -2.7351  -2.7316  -2.7264  -2.7120
    -0.9062  -0.8844  -0.8170  -0.8087  -0.7634  -0.7295  -0.6764  -0.5824
    -0.4989  -0.4022  -0.3635  -0.2616   0.0761   0.1642   0.2309   0.2374
     0.2884   0.3148   0.3282   0.3388   0.3969   0.4263   0.4474   0.5009
     0.5282   0.5725   0.6186   0.6486   0.7089   0.7826   0.8128   0.8285
     0.8663   0.8923   0.9026   0.9389   0.9626   0.9878   0.9926   1.0041
     1.0391   1.0549   1.0631   1.0884   1.1039   1.1205   1.1573   1.1687
     1.1898   1.2040   1.2237   1.2336   1.2416   1.2579   1.2779   1.2944
     1.3043   1.3204   1.3694   1.3748   1.4418   1.4647   1.4879   1.5099
     1.5356   1.5625   1.5728   1.5789   1.6110   1.6393   1.7984   1.8648

          k = 0.1252 0.3798 0.3841 (300943 PWs)   bands (ev):

   -17.5882 -17.5542 -17.5455 -17.4772 -17.4641 -17.4239 -17.4236 -17.3936
   -14.3190 -14.3173 -14.3142 -14.3093 -14.2950 -14.2877 -14.2846 -14.2827
   -14.2794 -14.2784 -14.2772 -14.2769 -14.2750 -14.2723 -14.2716 -14.2712
   -14.2670 -14.2636 -14.2570 -14.2545 -14.2528 -14.2517 -14.2494 -14.2457
   -14.2453 -14.2450 -14.2449 -14.2431 -14.2408 -14.2393 -14.2330 -14.2315
   -14.2285 -14.2240 -14.2184 -14.2157 -14.2140 -14.2128 -14.2066 -14.2041
   -10.5470 -10.5367 -10.5187 -10.5023 -10.4980 -10.4856 -10.4840 -10.4559
    -9.6662  -9.6116  -9.5680  -9.5228  -9.4637  -9.4212  -9.3741  -9.3555
    -9.3312  -9.3146  -9.2505  -9.2314  -9.2222  -9.1932  -9.1723  -9.1507
    -9.1434  -9.1321  -9.1128  -9.0943  -9.0869  -9.0599  -9.0456  -9.0188
    -7.0278  -7.0115  -6.9948  -6.9851  -6.9654  -6.9620  -6.9462  -6.9260
    -6.9158  -6.8975  -6.8702  -6.8264  -6.8006  -6.7836  -6.7732  -6.7486
    -5.6926  -5.5120  -5.4912  -5.3165  -5.2672  -5.1014  -5.0903  -4.9678
    -4.9066  -4.9005  -4.8765  -4.8509  -4.8383  -4.8306  -4.8148  -4.7850
    -2.8551  -2.8390  -2.8139  -2.8076  -2.8002  -2.7786  -2.7714  -2.7694
    -2.7660  -2.7595  -2.7531  -2.7430  -2.7371  -2.7309  -2.7290  -2.7121
    -0.8737  -0.8251  -0.7767  -0.7247  -0.5702  -0.4701  -0.4488  -0.4263
    -0.3612  -0.3313  -0.2925  -0.2598   0.0376   0.0975   0.1290   0.1476
     0.2099   0.2250   0.2510   0.3068   0.3495   0.3723   0.3982   0.4119
     0.4786   0.5282   0.5703   0.6053   0.6624   0.7232   0.7377   0.7936
     0.8291   0.8527   0.8744   0.9283   0.9407   0.9506   0.9811   0.9922
     1.0163   1.0438   1.0523   1.0606   1.0814   1.1039   1.1327   1.1515
     1.1888   1.2028   1.2263   1.2353   1.2517   1.2675   1.2994   1.3128
     1.3474   1.3528   1.3779   1.3869   1.4150   1.4378   1.4572   1.4737
     1.4920   1.5296   1.5441   1.5626   1.5817   1.6260   1.6366   1.6855

          k = 0.3757 0.1266 0.1280 (300984 PWs)   bands (ev):

   -17.5882 -17.5543 -17.5455 -17.4772 -17.4641 -17.4240 -17.4235 -17.3936
   -14.3192 -14.3180 -14.3157 -14.3069 -14.2961 -14.2869 -14.2866 -14.2826
   -14.2794 -14.2793 -14.2772 -14.2769 -14.2750 -14.2716 -14.2713 -14.2707
   -14.2669 -14.2618 -14.2569 -14.2545 -14.2536 -14.2521 -14.2493 -14.2471
   -14.2456 -14.2450 -14.2450 -14.2431 -14.2393 -14.2383 -14.2330 -14.2315
   -14.2285 -14.2240 -14.2183 -14.2157 -14.2140 -14.2128 -14.2066 -14.2041
   -10.5480 -10.5370 -10.5198 -10.5012 -10.4977 -10.4862 -10.4831 -10.4553
    -9.6946  -9.5970  -9.5630  -9.4990  -9.4770  -9.4045  -9.3881  -9.3473
    -9.3038  -9.2884  -9.2675  -9.2288  -9.2138  -9.1986  -9.1890  -9.1781
    -9.1623  -9.1429  -9.1264  -9.1128  -9.0712  -9.0656  -9.0434  -8.9783
    -7.0275  -7.0120  -6.9967  -6.9834  -6.9675  -6.9646  -6.9462  -6.9205
    -6.9150  -6.8966  -6.8728  -6.8283  -6.8011  -6.7902  -6.7674  -6.7485
    -5.8172  -5.6272  -5.3812  -5.3503  -5.1980  -5.1766  -4.9591  -4.9282
    -4.9074  -4.8898  -4.8636  -4.8490  -4.8400  -4.8256  -4.8042  -4.6999
    -2.8592  -2.8343  -2.8167  -2.8057  -2.7921  -2.7828  -2.7745  -2.7691
    -2.7655  -2.7605  -2.7584  -2.7492  -2.7386  -2.7320  -2.7202  -2.7124
    -0.9177  -0.8733  -0.8202  -0.8081  -0.7743  -0.7037  -0.6783  -0.6071
    -0.5085  -0.4104  -0.3607  -0.2680   0.0675   0.1567   0.2222   0.2421
     0.2811   0.3036   0.3249   0.3306   0.3947   0.4193   0.4414   0.4983
     0.5166   0.5653   0.6306   0.6531   0.7159   0.7534   0.7865   0.8171
     0.8595   0.8652   0.9088   0.9521   0.9632   0.9749   1.0019   1.0248
     1.0438   1.0596   1.0756   1.0890   1.1063   1.1325   1.1502   1.1670
     1.1930   1.2077   1.2275   1.2446   1.2474   1.2661   1.2828   1.2921
     1.3045   1.3129   1.3418   1.3932   1.4290   1.4720   1.4857   1.5260
     1.5501   1.5605   1.5888   1.6067   1.6174   1.6372   1.8505   1.9025

          k = 0.3757 0.1266 0.3841 (300971 PWs)   bands (ev):

   -17.5882 -17.5543 -17.5455 -17.4772 -17.4641 -17.4239 -17.4236 -17.3936
   -14.3189 -14.3167 -14.3146 -14.3096 -14.2959 -14.2868 -14.2852 -14.2831
   -14.2794 -14.2781 -14.2772 -14.2769 -14.2750 -14.2718 -14.2716 -14.2714
   -14.2669 -14.2630 -14.2569 -14.2545 -14.2535 -14.2519 -14.2493 -14.2456
   -14.2453 -14.2450 -14.2448 -14.2431 -14.2406 -14.2393 -14.2330 -14.2315
   -14.2285 -14.2240 -14.2184 -14.2157 -14.2140 -14.2128 -14.2066 -14.2041
   -10.5470 -10.5367 -10.5206 -10.5003 -10.4977 -10.4865 -10.4837 -10.4556
    -9.6662  -9.6107  -9.5685  -9.5225  -9.4701  -9.4276  -9.3875  -9.3676
    -9.3054  -9.2918  -9.2497  -9.2245  -9.2037  -9.1919  -9.1754  -9.1590
    -9.1453  -9.1369  -9.1261  -9.1018  -9.0912  -9.0666  -9.0494  -9.0036
    -7.0278  -7.0114  -6.9950  -6.9845  -6.9649  -6.9623  -6.9462  -6.9260
    -6.9161  -6.8975  -6.8704  -6.8263  -6.8005  -6.7835  -6.7732  -6.7487
    -5.7009  -5.5212  -5.5122  -5.3365  -5.2425  -5.0860  -5.0721  -4.9626
    -4.9035  -4.8994  -4.8790  -4.8485  -4.8378  -4.8310  -4.8131  -4.7834
    -2.8575  -2.8336  -2.8153  -2.8086  -2.7925  -2.7793  -2.7716  -2.7670
    -2.7634  -2.7610  -2.7548  -2.7492  -2.7393  -2.7328  -2.7293  -2.7116
    -0.8838  -0.8322  -0.7735  -0.7183  -0.5612  -0.4796  -0.4464  -0.4250
    -0.3805  -0.3308  -0.2995  -0.2493   0.0332   0.0835   0.1148   0.1532
     0.1882   0.2107   0.2386   0.2997   0.3576   0.3729   0.4019   0.4134
     0.4880   0.5501   0.5769   0.6202   0.6322   0.6788   0.7065   0.7676
     0.7978   0.8427   0.8579   0.8878   0.9095   0.9657   0.9791   1.0096
     1.0297   1.0446   1.0544   1.0847   1.0947   1.1325   1.1404   1.1773
     1.2005   1.2220   1.2383   1.2428   1.2656   1.2730   1.3011   1.3097
     1.3244   1.3459   1.3634   1.3966   1.4194   1.4307   1.4681   1.4900
     1.5019   1.5350   1.5534   1.5672   1.6067   1.6439   1.6707   1.7168

          k = 0.3757 0.3798 0.1280 (300902 PWs)   bands (ev):

   -17.5882 -17.5542 -17.5455 -17.4772 -17.4641 -17.4240 -17.4235 -17.3936
   -14.3191 -14.3176 -14.3152 -14.3066 -14.2960 -14.2875 -14.2864 -14.2822
   -14.2795 -14.2792 -14.2772 -14.2769 -14.2750 -14.2717 -14.2716 -14.2702
   -14.2669 -14.2619 -14.2570 -14.2545 -14.2539 -14.2524 -14.2493 -14.2474
   -14.2456 -14.2450 -14.2450 -14.2431 -14.2393 -14.2385 -14.2330 -14.2315
   -14.2285 -14.2240 -14.2183 -14.2157 -14.2140 -14.2128 -14.2066 -14.2041
   -10.5476 -10.5366 -10.5190 -10.5017 -10.4986 -10.4851 -10.4840 -10.4557
    -9.6581  -9.5823  -9.5615  -9.5365  -9.4660  -9.4561  -9.4416  -9.3812
    -9.2892  -9.2536  -9.2428  -9.2108  -9.2038  -9.1898  -9.1811  -9.1673
    -9.1467  -9.1366  -9.1274  -9.1030  -9.0859  -9.0763  -9.0441  -8.9993
    -7.0275  -7.0120  -6.9967  -6.9834  -6.9677  -6.9642  -6.9461  -6.9204
    -6.9146  -6.8965  -6.8726  -6.8285  -6.8013  -6.7904  -6.7679  -6.7489
    -5.6967  -5.5182  -5.4896  -5.3194  -5.2738  -5.0953  -5.0709  -4.9775
    -4.9104  -4.9018  -4.8728  -4.8525  -4.8392  -4.8285  -4.8124  -4.7782
    -2.8526  -2.8375  -2.8127  -2.8026  -2.7929  -2.7783  -2.7715  -2.7701
    -2.7662  -2.7634  -2.7606  -2.7521  -2.7374  -2.7325  -2.7289  -2.7117
    -0.8642  -0.7674  -0.7523  -0.6683  -0.5618  -0.5144  -0.4705  -0.4033
    -0.3754  -0.3664  -0.3109  -0.2708   0.0480   0.1208   0.1450   0.2002
     0.2301   0.2539   0.2733   0.2911   0.3122   0.3350   0.3492   0.3953
     0.5261   0.5556   0.5707   0.5859   0.6686   0.6886   0.7201   0.7495
     0.7648   0.7845   0.8121   0.8509   0.8986   0.9364   0.9706   0.9879
     1.0061   1.0373   1.0571   1.0741   1.0937   1.1184   1.1469   1.1779
     1.1876   1.2111   1.2238   1.2527   1.2577   1.2927   1.3045   1.3313
     1.3609   1.3696   1.3986   1.4122   1.4349   1.4472   1.4665   1.4844
     1.5050   1.5157   1.5204   1.5507   1.5702   1.6338   1.6564   1.6766

          k = 0.3757 0.3798 0.3841 (300978 PWs)   bands (ev):

   -17.5882 -17.5542 -17.5455 -17.4772 -17.4641 -17.4239 -17.4236 -17.3936
   -14.3186 -14.3166 -14.3142 -14.3093 -14.2958 -14.2875 -14.2850 -14.2828
   -14.2794 -14.2781 -14.2772 -14.2769 -14.2750 -14.2718 -14.2716 -14.2712
   -14.2670 -14.2630 -14.2570 -14.2545 -14.2538 -14.2522 -14.2493 -14.2457
   -14.2454 -14.2450 -14.2449 -14.2431 -14.2409 -14.2393 -14.2330 -14.2315
   -14.2286 -14.2240 -14.2183 -14.2157 -14.2140 -14.2128 -14.2066 -14.2041
   -10.5468 -10.5363 -10.5198 -10.5006 -10.4987 -10.4853 -10.4848 -10.4561
    -9.6323  -9.5806  -9.5542  -9.5351  -9.5047  -9.4865  -9.4362  -9.4108
    -9.2687  -9.2526  -9.2344  -9.2062  -9.1908  -9.1714  -9.1705  -9.1511
    -9.1464  -9.1348  -9.1176  -9.1086  -9.0978  -9.0686  -9.0627  -9.0196
    -7.0278  -7.0114  -6.9949  -6.9846  -6.9649  -6.9623  -6.9460  -6.9259
    -6.9157  -6.8974  -6.8703  -6.8264  -6.8007  -6.7835  -6.7734  -6.7488
    -5.5847  -5.4115  -5.4040  -5.3788  -5.2328  -5.2203  -5.2039  -5.0703
    -4.9070  -4.9044  -4.8848  -4.8527  -4.8395  -4.8297  -4.8246  -4.7988
    -2.8534  -2.8380  -2.8121  -2.8051  -2.7940  -2.7805  -2.7747  -2.7703
    -2.7665  -2.7637  -2.7540  -2.7445  -2.7374  -2.7310  -2.7288  -2.7115
    -0.5903  -0.5531  -0.5142  -0.4931  -0.4740  -0.4211  -0.3869  -0.3775
    -0.3612  -0.3287  -0.2947  -0.2374   0.0423   0.0789   0.1075   0.1247
     0.1563   0.1688   0.1910   0.2112   0.2422   0.2608   0.2733   0.3289
     0.5415   0.5754   0.5884   0.6044   0.6303   0.6655   0.6938   0.7167
     0.7443   0.7699   0.8174   0.8382   0.8590   0.8791   0.9075   0.9176
     0.9358   0.9538   0.9713   0.9949   1.0135   1.0357   1.0616   1.0928
     1.2210   1.2431   1.2607   1.2709   1.2981   1.3110   1.3193   1.3400
     1.3711   1.3798   1.3960   1.4099   1.4290   1.4386   1.4546   1.4715
     1.4879   1.4963   1.5129   1.5283   1.5372   1.5398   1.5533   1.5692

          k =-0.1252-0.1266 0.1280 (300913 PWs)   bands (ev):

   -17.5882 -17.5542 -17.5455 -17.4772 -17.4641 -17.4240 -17.4235 -17.3936
   -14.3197 -14.3183 -14.3160 -14.3070 -14.2953 -14.2871 -14.2863 -14.2823
   -14.2795 -14.2794 -14.2772 -14.2769 -14.2750 -14.2718 -14.2716 -14.2707
   -14.2669 -14.2624 -14.2569 -14.2545 -14.2527 -14.2516 -14.2494 -14.2470
   -14.2456 -14.2450 -14.2450 -14.2431 -14.2393 -14.2382 -14.2330 -14.2315
   -14.2285 -14.2240 -14.2183 -14.2157 -14.2140 -14.2128 -14.2066 -14.2041
   -10.5483 -10.5374 -10.5197 -10.5044 -10.4967 -10.4853 -10.4815 -10.4547
    -9.7318  -9.5961  -9.5264  -9.5149  -9.4203  -9.3860  -9.3489  -9.3305
    -9.3166  -9.2941  -9.2784  -9.2655  -9.2377  -9.2246  -9.2023  -9.1908
    -9.1821  -9.1666  -9.1346  -9.0873  -9.0653  -9.0467  -9.0162  -8.9782
    -7.0276  -7.0120  -6.9967  -6.9839  -6.9679  -6.9643  -6.9462  -6.9205
    -6.9148  -6.8967  -6.8727  -6.8287  -6.8009  -6.7904  -6.7668  -6.7482
    -5.9319  -5.4922  -5.4881  -5.4561  -5.0656  -5.0464  -5.0308  -4.9179
    -4.9105  -4.8970  -4.8630  -4.8467  -4.8418  -4.8331  -4.8082  -4.5793
    -2.8610  -2.8358  -2.8197  -2.8089  -2.7934  -2.7883  -2.7742  -2.7696
    -2.7633  -2.7582  -2.7543  -2.7449  -2.7379  -2.7277  -2.7217  -2.7125
    -0.9353  -0.9144  -0.8810  -0.8521  -0.7994  -0.7849  -0.7662  -0.7260
    -0.7166  -0.6625  -0.6340  -0.5382   0.1919   0.2487   0.2627   0.3024
     0.3673   0.3719   0.4279   0.4679   0.4766   0.5625   0.5744   0.6015
     0.6109   0.6816   0.7005   0.7579   0.7847   0.8021   0.8274   0.8742
     0.8991   0.9162   0.9246   0.9490   0.9643   0.9867   0.9989   1.0099
     1.0400   1.0577   1.0847   1.0871   1.1017   1.1393   1.1454   1.1618
     1.1815   1.2012   1.2108   1.2194   1.2263   1.2427   1.2518   1.2672
     1.2799   1.2949   1.3071   1.3956   1.4491   1.4750   1.4978   1.5525
     1.5958   1.6177   1.6350   1.6426   1.7264   1.7781   1.8388   2.0658

          k =-0.1252 0.1266-0.1280 (300913 PWs)   bands (ev):

   -17.5882 -17.5542 -17.5455 -17.4772 -17.4641 -17.4240 -17.4235 -17.3936
   -14.3197 -14.3183 -14.3160 -14.3070 -14.2953 -14.2871 -14.2863 -14.2823
   -14.2796 -14.2793 -14.2772 -14.2769 -14.2750 -14.2718 -14.2716 -14.2707
   -14.2669 -14.2624 -14.2569 -14.2545 -14.2527 -14.2516 -14.2494 -14.2470
   -14.2456 -14.2450 -14.2450 -14.2431 -14.2393 -14.2382 -14.2330 -14.2315
   -14.2285 -14.2240 -14.2183 -14.2157 -14.2140 -14.2128 -14.2066 -14.2041
   -10.5484 -10.5375 -10.5201 -10.5049 -10.4969 -10.4848 -10.4809 -10.4544
    -9.7358  -9.5956  -9.5170  -9.5089  -9.4171  -9.3940  -9.3713  -9.3250
    -9.3140  -9.2944  -9.2800  -9.2593  -9.2383  -9.2164  -9.2128  -9.1893
    -9.1811  -9.1643  -9.1326  -9.0897  -9.0638  -9.0463  -9.0170  -8.9779
    -7.0276  -7.0120  -6.9966  -6.9838  -6.9676  -6.9647  -6.9463  -6.9202
    -6.9151  -6.8968  -6.8727  -6.8288  -6.8009  -6.7902  -6.7668  -6.7482
    -5.9323  -5.4914  -5.4858  -5.4570  -5.0696  -5.0473  -5.0352  -4.9166
    -4.9109  -4.8950  -4.8611  -4.8486  -4.8388  -4.8303  -4.8067  -4.5816
    -2.8610  -2.8355  -2.8208  -2.8085  -2.7947  -2.7886  -2.7739  -2.7701
    -2.7621  -2.7583  -2.7545  -2.7442  -2.7390  -2.7272  -2.7212  -2.7121
    -0.9687  -0.9064  -0.8717  -0.8556  -0.7961  -0.7795  -0.7582  -0.7254
    -0.7127  -0.6615  -0.6301  -0.5310   0.1905   0.2426   0.2685   0.3134
     0.3538   0.3683   0.4166   0.4584   0.4715   0.5398   0.5685   0.5772
     0.6583   0.6997   0.7207   0.7250   0.7612   0.7931   0.8284   0.8786
     0.9004   0.9217   0.9441   0.9649   0.9750   1.0006   1.0183   1.0248
     1.0365   1.0495   1.0712   1.0932   1.1096   1.1287   1.1414   1.1505
     1.1773   1.1867   1.2019   1.2116   1.2209   1.2322   1.2462   1.2723
     1.2939   1.3050   1.3092   1.3848   1.4420   1.4845   1.4993   1.5572
     1.5951   1.6131   1.6282   1.6358   1.7610   1.7803   1.8340   2.0806

          k = 0.1252-0.1266-0.1280 (300913 PWs)   bands (ev):

   -17.5882 -17.5542 -17.5455 -17.4772 -17.4641 -17.4240 -17.4235 -17.3936
   -14.3197 -14.3183 -14.3160 -14.3070 -14.2953 -14.2871 -14.2863 -14.2823
   -14.2796 -14.2794 -14.2772 -14.2769 -14.2750 -14.2718 -14.2716 -14.2707
   -14.2669 -14.2624 -14.2569 -14.2545 -14.2527 -14.2516 -14.2494 -14.2470
   -14.2456 -14.2450 -14.2450 -14.2431 -14.2393 -14.2382 -14.2330 -14.2315
   -14.2285 -14.2240 -14.2183 -14.2157 -14.2140 -14.2128 -14.2066 -14.2041
   -10.5484 -10.5375 -10.5201 -10.5048 -10.4970 -10.4848 -10.4809 -10.4544
    -9.7358  -9.5956  -9.5164  -9.5097  -9.4171  -9.3934  -9.3715  -9.3247
    -9.3157  -9.2929  -9.2777  -9.2648  -9.2360  -9.2178  -9.2117  -9.1850
    -9.1793  -9.1705  -9.1322  -9.0893  -9.0638  -9.0463  -9.0171  -8.9778
    -7.0275  -7.0120  -6.9966  -6.9838  -6.9680  -6.9643  -6.9463  -6.9205
    -6.9149  -6.8967  -6.8727  -6.8287  -6.8009  -6.7902  -6.7668  -6.7482
    -5.9324  -5.4914  -5.4858  -5.4568  -5.0697  -5.0467  -5.0359  -4.9166
    -4.9106  -4.8952  -4.8612  -4.8486  -4.8387  -4.8302  -4.8068  -4.5815
    -2.8622  -2.8359  -2.8195  -2.8089  -2.7942  -2.7885  -2.7725  -2.7704
    -2.7639  -2.7575  -2.7530  -2.7467  -2.7383  -2.7273  -2.7200  -2.7127
    -0.9686  -0.9052  -0.8705  -0.8577  -0.7908  -0.7818  -0.7562  -0.7309
    -0.7121  -0.6616  -0.6310  -0.5314   0.1909   0.2424   0.2696   0.3136
     0.3548   0.3676   0.4172   0.4616   0.4694   0.5351   0.5624   0.5823
     0.6602   0.7029   0.7161   0.7360   0.7533   0.7981   0.8469   0.8746
     0.8929   0.9128   0.9406   0.9567   0.9737   0.9987   1.0143   1.0277
     1.0376   1.0605   1.0752   1.0887   1.1118   1.1272   1.1377   1.1528
     1.1742   1.1877   1.1984   1.2140   1.2237   1.2390   1.2458   1.2625
     1.2924   1.3075   1.3147   1.3837   1.4400   1.4869   1.4968   1.5581
     1.5960   1.6138   1.6294   1.6337   1.7662   1.7764   1.8322   2.0809

          k =-0.1252-0.1266 0.3841 (300919 PWs)   bands (ev):

   -17.5882 -17.5542 -17.5455 -17.4772 -17.4641 -17.4239 -17.4236 -17.3936
   -14.3193 -14.3174 -14.3146 -14.3097 -14.2951 -14.2871 -14.2848 -14.2830
   -14.2794 -14.2783 -14.2772 -14.2769 -14.2750 -14.2719 -14.2717 -14.2716
   -14.2669 -14.2635 -14.2569 -14.2545 -14.2526 -14.2514 -14.2494 -14.2456
   -14.2453 -14.2450 -14.2447 -14.2431 -14.2406 -14.2392 -14.2330 -14.2315
   -14.2285 -14.2240 -14.2184 -14.2157 -14.2140 -14.2128 -14.2066 -14.2041
   -10.5473 -10.5371 -10.5205 -10.5021 -10.4984 -10.4857 -10.4818 -10.4549
    -9.7002  -9.6471  -9.5023  -9.4873  -9.4532  -9.4307  -9.3465  -9.3432
    -9.3136  -9.3021  -9.2739  -9.2612  -9.2250  -9.2168  -9.1917  -9.1808
    -9.1691  -9.1333  -9.1124  -9.0920  -9.0800  -9.0435  -9.0362  -9.0017
    -7.0277  -7.0115  -6.9949  -6.9851  -6.9651  -6.9622  -6.9463  -6.9259
    -6.9160  -6.8977  -6.8704  -6.8263  -6.8005  -6.7836  -6.7730  -6.7486
    -5.8123  -5.6296  -5.3790  -5.3448  -5.2031  -5.1697  -4.9705  -4.9253
    -4.9033  -4.8946  -4.8701  -4.8474  -4.8432  -4.8213  -4.8029  -4.7055
    -2.8587  -2.8339  -2.8181  -2.8109  -2.7940  -2.7797  -2.7727  -2.7672
    -2.7608  -2.7571  -2.7497  -2.7486  -2.7387  -2.7345  -2.7306  -2.7123
    -0.8907  -0.8765  -0.8517  -0.8111  -0.7571  -0.7489  -0.6991  -0.6917
    -0.4966  -0.3748  -0.3676  -0.2286   0.0206   0.1308   0.1407   0.2498
     0.2835   0.3162   0.3633   0.3854   0.4164   0.4288   0.4470   0.4996
     0.5057   0.5605   0.7062   0.7201   0.7393   0.7638   0.8427   0.8592
     0.8777   0.9001   0.9048   0.9404   0.9765   0.9981   1.0146   1.0332
     1.0454   1.0700   1.0801   1.0932   1.1086   1.1222   1.1365   1.1585
     1.1733   1.1917   1.2132   1.2180   1.2351   1.2547   1.2591   1.2829
     1.3134   1.3217   1.3610   1.3857   1.4036   1.4190   1.4535   1.5077
     1.5695   1.5868   1.6136   1.6351   1.6432   1.6599   1.7612   1.8657

          k =-0.1252 0.1266-0.3841 (300919 PWs)   bands (ev):

   -17.5882 -17.5542 -17.5455 -17.4772 -17.4641 -17.4239 -17.4236 -17.3936
   -14.3193 -14.3174 -14.3146 -14.3097 -14.2951 -14.2871 -14.2848 -14.2830
   -14.2794 -14.2783 -14.2772 -14.2769 -14.2750 -14.2719 -14.2717 -14.2716
   -14.2669 -14.2635 -14.2569 -14.2545 -14.2526 -14.2514 -14.2494 -14.2456
   -14.2453 -14.2450 -14.2447 -14.2431 -14.2406 -14.2392 -14.2330 -14.2315
   -14.2285 -14.2240 -14.2184 -14.2157 -14.2140 -14.2128 -14.2066 -14.2041
   -10.5474 -10.5371 -10.5209 -10.5026 -10.4987 -10.4851 -10.4811 -10.4547
    -9.7039  -9.6475  -9.4936  -9.4803  -9.4503  -9.4351  -9.3576  -9.3428
    -9.3148  -9.3073  -9.2743  -9.2572  -9.2271  -9.2194  -9.1873  -9.1823
    -9.1648  -9.1332  -9.1133  -9.0901  -9.0814  -9.0437  -9.0354  -9.0011
    -7.0278  -7.0115  -6.9949  -6.9851  -6.9650  -6.9623  -6.9464  -6.9259
    -6.9162  -6.8977  -6.8703  -6.8263  -6.8004  -6.7836  -6.7730  -6.7486
    -5.8120  -5.6281  -5.3788  -5.3465  -5.2049  -5.1727  -4.9678  -4.9226
    -4.9034  -4.8956  -4.8684  -4.8497  -4.8418  -4.8194  -4.8021  -4.7084
    -2.8587  -2.8336  -2.8195  -2.8101  -2.7946  -2.7803  -2.7720  -2.7666
    -2.7611  -2.7580  -2.7493  -2.7486  -2.7393  -2.7347  -2.7299  -2.7119
    -0.9306  -0.8774  -0.8433  -0.7905  -0.7591  -0.7290  -0.7033  -0.6755
    -0.5061  -0.3701  -0.3657  -0.2322   0.0192   0.1313   0.1389   0.2443
     0.2796   0.3143   0.3586   0.3816   0.4168   0.4275   0.4487   0.4808
     0.5068   0.5779   0.7240   0.7317   0.7433   0.7575   0.7926   0.8259
     0.8987   0.9105   0.9398   0.9537   0.9771   0.9954   1.0072   1.0246
     1.0440   1.0640   1.0712   1.0831   1.1071   1.1233   1.1464   1.1535
     1.1648   1.1943   1.2103   1.2228   1.2394   1.2527   1.2680   1.3040
     1.3190   1.3351   1.3484   1.3801   1.4114   1.4212   1.4446   1.5078
     1.5734   1.5878   1.5996   1.6246   1.6287   1.6481   1.7985   1.8865

          k = 0.1252-0.1266-0.3841 (300919 PWs)   bands (ev):

   -17.5882 -17.5542 -17.5455 -17.4772 -17.4641 -17.4239 -17.4236 -17.3936
   -14.3193 -14.3174 -14.3146 -14.3097 -14.2951 -14.2871 -14.2848 -14.2830
   -14.2794 -14.2783 -14.2772 -14.2769 -14.2750 -14.2719 -14.2717 -14.2716
   -14.2669 -14.2635 -14.2569 -14.2545 -14.2526 -14.2514 -14.2494 -14.2456
   -14.2453 -14.2450 -14.2447 -14.2431 -14.2406 -14.2392 -14.2330 -14.2315
   -14.2285 -14.2240 -14.2184 -14.2157 -14.2140 -14.2128 -14.2066 -14.2041
   -10.5474 -10.5372 -10.5209 -10.5024 -10.4989 -10.4851 -10.4811 -10.4547
    -9.7040  -9.6475  -9.4917  -9.4829  -9.4518  -9.4322  -9.3585  -9.3425
    -9.3178  -9.3036  -9.2730  -9.2615  -9.2273  -9.2161  -9.1912  -9.1744
    -9.1695  -9.1340  -9.1127  -9.0903  -9.0813  -9.0436  -9.0357  -9.0008
    -7.0278  -7.0115  -6.9949  -6.9851  -6.9655  -6.9619  -6.9463  -6.9261
    -6.9161  -6.8977  -6.8703  -6.8263  -6.8004  -6.7836  -6.7730  -6.7485
    -5.8122  -5.6279  -5.3792  -5.3459  -5.2046  -5.1732  -4.9681  -4.9226
    -4.9029  -4.8954  -4.8690  -4.8496  -4.8418  -4.8190  -4.8025  -4.7082
    -2.8600  -2.8339  -2.8175  -2.8114  -2.7944  -2.7791  -2.7697  -2.7672
    -2.7615  -2.7591  -2.7535  -2.7467  -2.7385  -2.7340  -2.7291  -2.7124
    -0.9312  -0.8767  -0.8408  -0.7934  -0.7560  -0.7301  -0.7026  -0.6763
    -0.5072  -0.3743  -0.3643  -0.2334   0.0200   0.1307   0.1421   0.2472
     0.2801   0.3167   0.3566   0.3805   0.4156   0.4268   0.4502   0.4830
     0.5046   0.5801   0.7188   0.7274   0.7377   0.7725   0.7898   0.8231
     0.8959   0.9138   0.9430   0.9531   0.9779   0.9918   1.0092   1.0246
     1.0489   1.0537   1.0733   1.0830   1.1072   1.1263   1.1413   1.1534
     1.1663   1.1983   1.2118   1.2220   1.2360   1.2554   1.2682   1.3036
     1.3181   1.3332   1.3468   1.3838   1.4103   1.4183   1.4470   1.5070
     1.5771   1.5886   1.5975   1.6216   1.6311   1.6477   1.7983   1.8870

          k =-0.1252-0.3798 0.1280 (300887 PWs)   bands (ev):

   -17.5882 -17.5542 -17.5455 -17.4772 -17.4641 -17.4240 -17.4235 -17.3936
   -14.3196 -14.3180 -14.3155 -14.3067 -14.2952 -14.2878 -14.2861 -14.2820
   -14.2797 -14.2793 -14.2772 -14.2769 -14.2750 -14.2722 -14.2716 -14.2702
   -14.2670 -14.2625 -14.2570 -14.2545 -14.2529 -14.2519 -14.2494 -14.2474
   -14.2456 -14.2450 -14.2450 -14.2431 -14.2393 -14.2384 -14.2330 -14.2315
   -14.2285 -14.2240 -14.2183 -14.2157 -14.2140 -14.2128 -14.2066 -14.2041
   -10.5478 -10.5368 -10.5181 -10.5043 -10.4969 -10.4853 -10.4836 -10.4556
    -9.6931  -9.5969  -9.5662  -9.4950  -9.4749  -9.3932  -9.3896  -9.3356
    -9.3304  -9.2860  -9.2657  -9.2454  -9.2278  -9.2030  -9.1939  -9.1809
    -9.1518  -9.1322  -9.1232  -9.0944  -9.0760  -9.0638  -9.0254  -8.9973
    -7.0276  -7.0120  -6.9965  -6.9838  -6.9676  -6.9646  -6.9463  -6.9200
    -6.9149  -6.8968  -6.8725  -6.8289  -6.8013  -6.7903  -6.7673  -6.7486
    -5.8081  -5.6053  -5.3777  -5.3716  -5.1886  -5.1760  -4.9795  -4.9223
    -4.9111  -4.8979  -4.8623  -4.8497  -4.8398  -4.8261  -4.8074  -4.7064
    -2.8528  -2.8404  -2.8154  -2.8051  -2.7974  -2.7837  -2.7737  -2.7709
    -2.7618  -2.7577  -2.7539  -2.7503  -2.7356  -2.7334  -2.7270  -2.7123
    -0.9130  -0.8807  -0.8179  -0.8104  -0.7609  -0.7304  -0.6777  -0.5830
    -0.4937  -0.3969  -0.3620  -0.2603   0.0727   0.1589   0.2265   0.2341
     0.2963   0.3123   0.3247   0.3418   0.3967   0.4304   0.4565   0.4997
     0.5232   0.5747   0.6150   0.6451   0.7103   0.7842   0.8195   0.8363
     0.8612   0.8912   0.9048   0.9366   0.9614   0.9862   0.9953   1.0019
     1.0241   1.0520   1.0613   1.0902   1.1099   1.1206   1.1564   1.1708
     1.1989   1.2058   1.2203   1.2315   1.2475   1.2655   1.2764   1.2861
     1.3016   1.3116   1.3613   1.3878   1.4402   1.4664   1.4865   1.5060
     1.5387   1.5566   1.5733   1.5826   1.6134   1.6376   1.7999   1.8687

          k =-0.1252 0.3798-0.1280 (300887 PWs)   bands (ev):

   -17.5882 -17.5542 -17.5455 -17.4772 -17.4641 -17.4240 -17.4235 -17.3936
   -14.3196 -14.3180 -14.3155 -14.3067 -14.2952 -14.2878 -14.2861 -14.2820
   -14.2797 -14.2793 -14.2772 -14.2769 -14.2750 -14.2722 -14.2716 -14.2702
   -14.2670 -14.2625 -14.2570 -14.2545 -14.2529 -14.2519 -14.2494 -14.2474
   -14.2456 -14.2450 -14.2450 -14.2431 -14.2393 -14.2384 -14.2330 -14.2315
   -14.2285 -14.2240 -14.2183 -14.2157 -14.2140 -14.2128 -14.2066 -14.2041
   -10.5478 -10.5369 -10.5185 -10.5048 -10.4971 -10.4847 -10.4830 -10.4554
    -9.7005  -9.5878  -9.5660  -9.4779  -9.4734  -9.4207  -9.3935  -9.3325
    -9.3254  -9.2872  -9.2659  -9.2410  -9.2264  -9.2076  -9.1981  -9.1752
    -9.1512  -9.1339  -9.1239  -9.0919  -9.0740  -9.0631  -9.0287  -8.9961
    -7.0276  -7.0120  -6.9965  -6.9837  -6.9676  -6.9646  -6.9464  -6.9200
    -6.9150  -6.8969  -6.8725  -6.8289  -6.8014  -6.7901  -6.7673  -6.7486
    -5.8088  -5.6048  -5.3771  -5.3674  -5.1896  -5.1813  -4.9930  -4.9151
    -4.9113  -4.8934  -4.8623  -4.8477  -4.8379  -4.8224  -4.8035  -4.7140
    -2.8529  -2.8400  -2.8166  -2.8048  -2.7982  -2.7845  -2.7736  -2.7706
    -2.7619  -2.7576  -2.7535  -2.7495  -2.7374  -2.7328  -2.7259  -2.7118
    -0.9220  -0.8873  -0.8226  -0.8065  -0.7584  -0.7303  -0.6770  -0.5921
    -0.4790  -0.3750  -0.3433  -0.2427   0.0619   0.1160   0.2093   0.2323
     0.2947   0.3162   0.3228   0.3551   0.3863   0.4104   0.4439   0.4658
     0.5184   0.6068   0.6287   0.6772   0.7105   0.7795   0.8136   0.8452
     0.8624   0.8904   0.9138   0.9628   0.9689   0.9803   0.9923   1.0141
     1.0335   1.0438   1.0696   1.0846   1.0962   1.1204   1.1352   1.1720
     1.1973   1.2117   1.2152   1.2275   1.2407   1.2653   1.2867   1.2947
     1.2988   1.3130   1.3514   1.3772   1.4190   1.4628   1.4936   1.5076
     1.5307   1.5542   1.5740   1.5931   1.6214   1.6589   1.7866   1.8918

          k = 0.1252-0.3798-0.1280 (300887 PWs)   bands (ev):

   -17.5882 -17.5542 -17.5455 -17.4772 -17.4641 -17.4240 -17.4235 -17.3936
   -14.3196 -14.3180 -14.3155 -14.3067 -14.2952 -14.2878 -14.2861 -14.2820
   -14.2797 -14.2793 -14.2772 -14.2769 -14.2750 -14.2722 -14.2716 -14.2702
   -14.2670 -14.2625 -14.2570 -14.2545 -14.2529 -14.2519 -14.2494 -14.2474
   -14.2456 -14.2450 -14.2450 -14.2431 -14.2393 -14.2384 -14.2330 -14.2315
   -14.2285 -14.2240 -14.2183 -14.2157 -14.2140 -14.2128 -14.2066 -14.2041
   -10.5478 -10.5369 -10.5186 -10.5047 -10.4971 -10.4847 -10.4830 -10.4553
    -9.7011  -9.5862  -9.5658  -9.4796  -9.4744  -9.4208  -9.3914  -9.3317
    -9.3260  -9.2892  -9.2651  -9.2413  -9.2253  -9.2065  -9.1988  -9.1763
    -9.1493  -9.1354  -9.1241  -9.0915  -9.0729  -9.0647  -9.0281  -8.9961
    -7.0276  -7.0120  -6.9964  -6.9838  -6.9676  -6.9646  -6.9464  -6.9201
    -6.9150  -6.8968  -6.8725  -6.8289  -6.8014  -6.7901  -6.7673  -6.7485
    -5.8091  -5.6043  -5.3772  -5.3672  -5.1895  -5.1818  -4.9937  -4.9147
    -4.9110  -4.8932  -4.8624  -4.8476  -4.8377  -4.8221  -4.8036  -4.7144
    -2.8548  -2.8397  -2.8152  -2.8045  -2.7990  -2.7841  -2.7720  -2.7677
    -2.7628  -2.7602  -2.7568  -2.7486  -2.7364  -2.7315  -2.7260  -2.7124
    -0.9247  -0.8853  -0.8202  -0.8095  -0.7536  -0.7299  -0.6762  -0.5909
    -0.4835  -0.3793  -0.3457  -0.2443   0.0665   0.1213   0.2163   0.2288
     0.2955   0.3110   0.3265   0.3515   0.3853   0.4049   0.4380   0.4683
     0.5381   0.5944   0.6304   0.6743   0.7139   0.7824   0.8250   0.8454
     0.8623   0.8893   0.9130   0.9561   0.9669   0.9730   0.9922   1.0074
     1.0279   1.0421   1.0695   1.0837   1.1025   1.1220   1.1435   1.1717
     1.1934   1.2131   1.2178   1.2330   1.2405   1.2695   1.2764   1.2808
     1.3099   1.3162   1.3516   1.3739   1.4188   1.4635   1.4934   1.5102
     1.5348   1.5511   1.5765   1.5931   1.6191   1.6588   1.7873   1.8917

          k =-0.1252-0.3798 0.3841 (300943 PWs)   bands (ev):

   -17.5882 -17.5542 -17.5455 -17.4772 -17.4641 -17.4239 -17.4236 -17.3936
   -14.3190 -14.3173 -14.3142 -14.3093 -14.2950 -14.2877 -14.2846 -14.2827
   -14.2794 -14.2784 -14.2772 -14.2769 -14.2750 -14.2723 -14.2716 -14.2712
   -14.2670 -14.2636 -14.2570 -14.2545 -14.2528 -14.2517 -14.2494 -14.2457
   -14.2453 -14.2450 -14.2449 -14.2431 -14.2408 -14.2393 -14.2330 -14.2315
   -14.2285 -14.2240 -14.2184 -14.2157 -14.2140 -14.2128 -14.2066 -14.2041
   -10.5469 -10.5367 -10.5187 -10.5022 -10.4983 -10.4856 -10.4840 -10.4559
    -9.6636  -9.6151  -9.5694  -9.5206  -9.4647  -9.4191  -9.3779  -9.3526
    -9.3304  -9.3154  -9.2498  -9.2339  -9.2219  -9.1900  -9.1719  -9.1529
    -9.1456  -9.1287  -9.1134  -9.0973  -9.0839  -9.0589  -9.0466  -9.0195
    -7.0279  -7.0115  -6.9947  -6.9852  -6.9649  -6.9625  -6.9463  -6.9258
    -6.9159  -6.8976  -6.8702  -6.8264  -6.8006  -6.7836  -6.7732  -6.7486
    -5.6915  -5.5139  -5.4911  -5.3154  -5.2673  -5.1002  -5.0913  -4.9699
    -4.9067  -4.9007  -4.8759  -4.8506  -4.8383  -4.8311  -4.8141  -4.7841
    -2.8532  -2.8397  -2.8128  -2.8080  -2.7992  -2.7795  -2.7735  -2.7698
    -2.7659  -2.7596  -2.7501  -2.7423  -2.7365  -2.7336  -2.7302  -2.7124
    -0.8749  -0.8251  -0.7774  -0.7246  -0.5815  -0.4738  -0.4593  -0.4218
    -0.3434  -0.3223  -0.2824  -0.2488   0.0231   0.0814   0.1159   0.1501
     0.2074   0.2399   0.2470   0.3166   0.3514   0.3652   0.4020   0.4120
     0.4886   0.5229   0.5634   0.6071   0.6614   0.7233   0.7409   0.7994
     0.8233   0.8434   0.8749   0.9274   0.9402   0.9539   0.9805   0.9955
     1.0215   1.0440   1.0486   1.0569   1.0849   1.1070   1.1330   1.1483
     1.1879   1.2063   1.2251   1.2337   1.2580   1.2653   1.2948   1.3115
     1.3407   1.3583   1.3800   1.3943   1.4123   1.4340   1.4552   1.4673
     1.5023   1.5190   1.5491   1.5641   1.5835   1.6159   1.6418   1.6910

          k =-0.1252 0.3798-0.3841 (300943 PWs)   bands (ev):

   -17.5882 -17.5542 -17.5455 -17.4772 -17.4641 -17.4239 -17.4236 -17.3936
   -14.3190 -14.3173 -14.3142 -14.3093 -14.2950 -14.2877 -14.2846 -14.2827
   -14.2794 -14.2784 -14.2772 -14.2769 -14.2750 -14.2723 -14.2716 -14.2712
   -14.2670 -14.2636 -14.2570 -14.2545 -14.2528 -14.2517 -14.2494 -14.2457
   -14.2453 -14.2450 -14.2449 -14.2431 -14.2408 -14.2393 -14.2330 -14.2315
   -14.2285 -14.2240 -14.2183 -14.2157 -14.2140 -14.2128 -14.2066 -14.2041
   -10.5470 -10.5367 -10.5192 -10.5026 -10.4986 -10.4850 -10.4834 -10.4556
    -9.6698  -9.6172  -9.5626  -9.5147  -9.4515  -9.4191  -9.3950  -9.3596
    -9.3274  -9.3168  -9.2493  -9.2305  -9.2209  -9.1922  -9.1757  -9.1500
    -9.1450  -9.1320  -9.1094  -9.0941  -9.0858  -9.0596  -9.0467  -9.0182
    -7.0279  -7.0115  -6.9948  -6.9852  -6.9653  -6.9622  -6.9464  -6.9259
    -6.9159  -6.8976  -6.8702  -6.8264  -6.8006  -6.7836  -6.7731  -6.7486
    -5.6906  -5.5108  -5.4921  -5.3190  -5.2698  -5.1070  -5.0879  -4.9577
    -4.9074  -4.9009  -4.8790  -4.8491  -4.8423  -4.8277  -4.8134  -4.7871
    -2.8532  -2.8393  -2.8149  -2.8066  -2.7999  -2.7796  -2.7737  -2.7689
    -2.7667  -2.7598  -2.7499  -2.7422  -2.7374  -2.7335  -2.7294  -2.7119
    -0.8872  -0.8349  -0.7742  -0.7239  -0.5697  -0.4636  -0.4478  -0.4100
    -0.3503  -0.3183  -0.2718  -0.2376   0.0100   0.0618   0.1073   0.1394
     0.1914   0.2209   0.2607   0.3184   0.3403   0.3588   0.4072   0.4208
     0.4745   0.5309   0.5816   0.6149   0.6535   0.7225   0.7404   0.7870
     0.8369   0.8699   0.8878   0.9223   0.9455   0.9583   0.9796   0.9970
     1.0069   1.0176   1.0305   1.0599   1.0693   1.1170   1.1289   1.1725
     1.1865   1.2076   1.2321   1.2437   1.2645   1.2733   1.2897   1.3078
     1.3506   1.3623   1.3773   1.4022   1.4083   1.4240   1.4477   1.4702
     1.4903   1.5055   1.5313   1.5451   1.5857   1.6156   1.6719   1.7232

          k = 0.1252-0.3798-0.3841 (300943 PWs)   bands (ev):

   -17.5882 -17.5542 -17.5455 -17.4772 -17.4641 -17.4239 -17.4236 -17.3936
   -14.3190 -14.3173 -14.3142 -14.3093 -14.2950 -14.2877 -14.2846 -14.2827
   -14.2794 -14.2784 -14.2772 -14.2769 -14.2750 -14.2723 -14.2716 -14.2712
   -14.2670 -14.2636 -14.2570 -14.2545 -14.2528 -14.2517 -14.2494 -14.2457
   -14.2453 -14.2450 -14.2449 -14.2431 -14.2408 -14.2393 -14.2330 -14.2315
   -14.2285 -14.2240 -14.2183 -14.2157 -14.2140 -14.2128 -14.2066 -14.2041
   -10.5470 -10.5367 -10.5192 -10.5024 -10.4988 -10.4850 -10.4834 -10.4556
    -9.6712  -9.6156  -9.5597  -9.5185  -9.4545  -9.4141  -9.3959  -9.3587
    -9.3281  -9.3182  -9.2481  -9.2325  -9.2178  -9.1953  -9.1751  -9.1493
    -9.1431  -9.1323  -9.1104  -9.0940  -9.0872  -9.0588  -9.0466  -9.0181
    -7.0279  -7.0115  -6.9947  -6.9852  -6.9653  -6.9621  -6.9464  -6.9260
    -6.9159  -6.8976  -6.8702  -6.8264  -6.8006  -6.7836  -6.7732  -6.7486
    -5.6914  -5.5089  -5.4921  -5.3201  -5.2701  -5.1076  -5.0875  -4.9566
    -4.9069  -4.9012  -4.8795  -4.8488  -4.8423  -4.8271  -4.8144  -4.7872
    -2.8551  -2.8390  -2.8117  -2.8086  -2.8002  -2.7781  -2.7716  -2.7696
    -2.7667  -2.7601  -2.7531  -2.7427  -2.7374  -2.7314  -2.7287  -2.7125
    -0.8875  -0.8356  -0.7755  -0.7235  -0.5567  -0.4568  -0.4385  -0.4151
    -0.3650  -0.3271  -0.2765  -0.2556   0.0198   0.0750   0.1225   0.1424
     0.1934   0.2352   0.2446   0.3038   0.3369   0.3650   0.4060   0.4175
     0.4691   0.5363   0.5878   0.6106   0.6571   0.7248   0.7364   0.7817
     0.8363   0.8682   0.8878   0.9257   0.9393   0.9673   0.9792   0.9987
     1.0058   1.0100   1.0333   1.0549   1.0690   1.1155   1.1377   1.1631
     1.1872   1.2167   1.2344   1.2475   1.2686   1.2707   1.2873   1.2988
     1.3458   1.3599   1.3817   1.3923   1.4165   1.4275   1.4547   1.4689
     1.4803   1.5137   1.5339   1.5431   1.5832   1.6192   1.6709   1.7223

          k =-0.3757-0.1266 0.1280 (300984 PWs)   bands (ev):

   -17.5882 -17.5543 -17.5455 -17.4772 -17.4641 -17.4240 -17.4235 -17.3936
   -14.3192 -14.3180 -14.3157 -14.3069 -14.2961 -14.2869 -14.2866 -14.2826
   -14.2794 -14.2793 -14.2772 -14.2769 -14.2750 -14.2716 -14.2713 -14.2707
   -14.2669 -14.2618 -14.2569 -14.2545 -14.2536 -14.2521 -14.2493 -14.2471
   -14.2456 -14.2450 -14.2450 -14.2431 -14.2393 -14.2383 -14.2330 -14.2315
   -14.2285 -14.2240 -14.2183 -14.2157 -14.2140 -14.2128 -14.2066 -14.2041
   -10.5479 -10.5370 -10.5198 -10.5010 -10.4979 -10.4862 -10.4831 -10.4553
    -9.6936  -9.5978  -9.5645  -9.4989  -9.4758  -9.4061  -9.3873  -9.3454
    -9.3054  -9.2863  -9.2693  -9.2302  -9.2118  -9.2004  -9.1878  -9.1768
    -9.1589  -9.1474  -9.1274  -9.1112  -9.0705  -9.0660  -9.0439  -8.9785
    -7.0275  -7.0120  -6.9967  -6.9834  -6.9677  -6.9644  -6.9462  -6.9206
    -6.9149  -6.8967  -6.8728  -6.8283  -6.8011  -6.7902  -6.7674  -6.7486
    -5.8170  -5.6273  -5.3816  -5.3502  -5.1978  -5.1769  -4.9587  -4.9288
    -4.9073  -4.8900  -4.8639  -4.8487  -4.8401  -4.8256  -4.8046  -4.6988
    -2.8579  -2.8342  -2.8151  -2.8063  -2.7931  -2.7827  -2.7737  -2.7698
    -2.7659  -2.7609  -2.7595  -2.7463  -2.7393  -2.7323  -2.7218  -2.7125
    -0.9261  -0.8673  -0.8231  -0.8144  -0.7658  -0.7025  -0.6778  -0.6074
    -0.5046  -0.4081  -0.3610  -0.2685   0.0633   0.1540   0.2278   0.2426
     0.2803   0.3070   0.3193   0.3297   0.3917   0.4220   0.4516   0.4931
     0.5126   0.5666   0.6272   0.6529   0.7180   0.7624   0.7825   0.8259
     0.8562   0.8673   0.9032   0.9526   0.9617   0.9770   0.9967   1.0213
     1.0408   1.0614   1.0724   1.0862   1.1060   1.1341   1.1540   1.1644
     1.1956   1.2118   1.2253   1.2388   1.2521   1.2618   1.2866   1.2935
     1.3068   1.3147   1.3411   1.3887   1.4301   1.4712   1.4956   1.5211
     1.5352   1.5690   1.5793   1.6062   1.6271   1.6342   1.8533   1.9073

          k =-0.3757 0.1266-0.1280 (300984 PWs)   bands (ev):

   -17.5882 -17.5543 -17.5455 -17.4772 -17.4641 -17.4240 -17.4235 -17.3936
   -14.3192 -14.3180 -14.3157 -14.3069 -14.2961 -14.2869 -14.2866 -14.2826
   -14.2794 -14.2792 -14.2772 -14.2769 -14.2750 -14.2716 -14.2713 -14.2707
   -14.2669 -14.2618 -14.2569 -14.2545 -14.2536 -14.2521 -14.2493 -14.2471
   -14.2456 -14.2450 -14.2450 -14.2431 -14.2393 -14.2383 -14.2330 -14.2315
   -14.2285 -14.2240 -14.2183 -14.2157 -14.2140 -14.2128 -14.2066 -14.2041
   -10.5480 -10.5371 -10.5202 -10.5022 -10.4975 -10.4856 -10.4825 -10.4550
    -9.7016  -9.5868  -9.5640  -9.4842  -9.4764  -9.4288  -9.3891  -9.3444
    -9.3003  -9.2865  -9.2710  -9.2287  -9.2159  -9.1994  -9.1838  -9.1790
    -9.1627  -9.1445  -9.1258  -9.1082  -9.0707  -9.0665  -9.0450  -8.9783
    -7.0275  -7.0120  -6.9967  -6.9833  -6.9674  -6.9648  -6.9463  -6.9204
    -6.9151  -6.8968  -6.8728  -6.8283  -6.8012  -6.7900  -6.7674  -6.7486
    -5.8178  -5.6265  -5.3765  -5.3505  -5.2046  -5.1763  -4.9749  -4.9213
    -4.9081  -4.8847  -4.8622  -4.8462  -4.8396  -4.8217  -4.7993  -4.7067
    -2.8580  -2.8338  -2.8169  -2.8054  -2.7928  -2.7848  -2.7746  -2.7694
    -2.7642  -2.7606  -2.7597  -2.7453  -2.7413  -2.7314  -2.7214  -2.7121
    -0.9362  -0.8696  -0.8241  -0.8176  -0.7643  -0.7030  -0.6757  -0.6156
    -0.4875  -0.3910  -0.3378  -0.2555   0.0561   0.1140   0.2054   0.2323
     0.2788   0.3070   0.3290   0.3464   0.3763   0.4070   0.4281   0.4626
     0.5298   0.5832   0.6432   0.6825   0.7178   0.7477   0.7932   0.8428
     0.8617   0.8841   0.9149   0.9440   0.9608   0.9662   1.0042   1.0166
     1.0357   1.0534   1.0757   1.0945   1.1094   1.1197   1.1500   1.1799
     1.1916   1.2065   1.2222   1.2350   1.2542   1.2677   1.2818   1.2909
     1.2985   1.3095   1.3502   1.3713   1.4313   1.4601   1.4948   1.5153
     1.5527   1.5618   1.5779   1.6040   1.6189   1.6761   1.8398   1.9294

          k = 0.3757-0.1266-0.1280 (300984 PWs)   bands (ev):

   -17.5882 -17.5543 -17.5455 -17.4772 -17.4641 -17.4240 -17.4235 -17.3936
   -14.3192 -14.3180 -14.3157 -14.3069 -14.2961 -14.2869 -14.2866 -14.2826
   -14.2794 -14.2792 -14.2772 -14.2769 -14.2750 -14.2716 -14.2713 -14.2707
   -14.2669 -14.2618 -14.2569 -14.2545 -14.2536 -14.2521 -14.2493 -14.2471
   -14.2456 -14.2450 -14.2450 -14.2431 -14.2393 -14.2383 -14.2330 -14.2315
   -14.2285 -14.2240 -14.2183 -14.2157 -14.2140 -14.2128 -14.2066 -14.2041
   -10.5480 -10.5371 -10.5202 -10.5019 -10.4978 -10.4856 -10.4825 -10.4550
    -9.7012  -9.5886  -9.5642  -9.4836  -9.4738  -9.4288  -9.3911  -9.3449
    -9.2978  -9.2882  -9.2711  -9.2298  -9.2164  -9.1970  -9.1880  -9.1738
    -9.1620  -9.1465  -9.1282  -9.1064  -9.0702  -9.0667  -9.0454  -8.9781
    -7.0275  -7.0120  -6.9967  -6.9834  -6.9675  -6.9647  -6.9463  -6.9205
    -6.9151  -6.8967  -6.8728  -6.8283  -6.8012  -6.7900  -6.7674  -6.7485
    -5.8178  -5.6268  -5.3764  -5.3503  -5.2044  -5.1763  -4.9743  -4.9216
    -4.9078  -4.8853  -4.8626  -4.8461  -4.8395  -4.8219  -4.7998  -4.7061
    -2.8593  -2.8342  -2.8154  -2.8056  -2.7931  -2.7830  -2.7741  -2.7711
    -2.7652  -2.7607  -2.7567  -2.7485  -2.7406  -2.7313  -2.7200  -2.7127
    -0.9292  -0.8784  -0.8247  -0.8093  -0.7709  -0.7043  -0.6776  -0.6164
    -0.4842  -0.3887  -0.3379  -0.2557   0.0526   0.1117   0.2120   0.2330
     0.2821   0.3039   0.3279   0.3466   0.3758   0.4129   0.4380   0.4543
     0.5090   0.5994   0.6408   0.6878   0.7141   0.7490   0.7791   0.8355
     0.8682   0.8866   0.9095   0.9467   0.9680   0.9720   1.0067   1.0271
     1.0393   1.0506   1.0725   1.0929   1.1011   1.1132   1.1442   1.1800
     1.1914   1.2086   1.2257   1.2396   1.2567   1.2640   1.2824   1.2878
     1.3015   1.3165   1.3412   1.3763   1.4288   1.4561   1.4952   1.5199
     1.5446   1.5690   1.5768   1.6069   1.6199   1.6751   1.8373   1.9288

          k =-0.3757-0.1266 0.3841 (300971 PWs)   bands (ev):

   -17.5882 -17.5543 -17.5455 -17.4772 -17.4641 -17.4239 -17.4236 -17.3936
   -14.3189 -14.3167 -14.3146 -14.3096 -14.2959 -14.2868 -14.2852 -14.2831
   -14.2794 -14.2781 -14.2772 -14.2769 -14.2750 -14.2718 -14.2716 -14.2714
   -14.2669 -14.2630 -14.2569 -14.2545 -14.2535 -14.2519 -14.2493 -14.2456
   -14.2453 -14.2450 -14.2448 -14.2431 -14.2406 -14.2393 -14.2330 -14.2315
   -14.2285 -14.2240 -14.2184 -14.2157 -14.2140 -14.2128 -14.2066 -14.2041
   -10.5470 -10.5367 -10.5206 -10.5000 -10.4981 -10.4865 -10.4837 -10.4556
    -9.6636  -9.6142  -9.5696  -9.5207  -9.4703  -9.4271  -9.3911  -9.3632
    -9.3056  -9.2923  -9.2506  -9.2253  -9.2029  -9.1894  -9.1764  -9.1596
    -9.1423  -9.1374  -9.1295  -9.1012  -9.0898  -9.0685  -9.0484  -9.0042
    -7.0278  -7.0114  -6.9950  -6.9845  -6.9652  -6.9620  -6.9462  -6.9260
    -6.9160  -6.8976  -6.8704  -6.8262  -6.8005  -6.7835  -6.7733  -6.7488
    -5.7002  -5.5216  -5.5126  -5.3365  -5.2424  -5.0841  -5.0736  -4.9644
    -4.9031  -4.9002  -4.8787  -4.8481  -4.8378  -4.8314  -4.8131  -4.7820
    -2.8562  -2.8334  -2.8124  -2.8104  -2.7930  -2.7790  -2.7739  -2.7669
    -2.7650  -2.7599  -2.7511  -2.7492  -2.7396  -2.7344  -2.7307  -2.7119
    -0.8864  -0.8316  -0.7770  -0.7164  -0.5702  -0.4764  -0.4484  -0.4220
    -0.3669  -0.3292  -0.2940  -0.2486   0.0228   0.0790   0.1037   0.1581
     0.1916   0.2164   0.2381   0.3069   0.3523   0.3730   0.4016   0.4143
     0.4943   0.5457   0.5670   0.6111   0.6407   0.6887   0.7057   0.7742
     0.7883   0.8356   0.8624   0.8872   0.9070   0.9657   0.9784   1.0111
     1.0300   1.0490   1.0573   1.0811   1.0943   1.1344   1.1425   1.1731
     1.2014   1.2160   1.2357   1.2423   1.2675   1.2766   1.3037   1.3128
     1.3292   1.3431   1.3645   1.3985   1.4191   1.4316   1.4567   1.4888
     1.5013   1.5279   1.5545   1.5714   1.6088   1.6384   1.6737   1.7243

          k =-0.3757 0.1266-0.3841 (300971 PWs)   bands (ev):

   -17.5882 -17.5543 -17.5455 -17.4772 -17.4641 -17.4239 -17.4236 -17.3936
   -14.3189 -14.3167 -14.3146 -14.3096 -14.2959 -14.2868 -14.2852 -14.2831
   -14.2794 -14.2781 -14.2772 -14.2769 -14.2750 -14.2718 -14.2716 -14.2714
   -14.2669 -14.2630 -14.2569 -14.2545 -14.2535 -14.2519 -14.2493 -14.2456
   -14.2453 -14.2450 -14.2448 -14.2431 -14.2406 -14.2393 -14.2330 -14.2315
   -14.2285 -14.2240 -14.2184 -14.2157 -14.2140 -14.2128 -14.2066 -14.2041
   -10.5470 -10.5367 -10.5211 -10.5009 -10.4982 -10.4859 -10.4830 -10.4553
    -9.6712  -9.6147  -9.5595  -9.5185  -9.4610  -9.4217  -9.4060  -9.3718
    -9.3037  -9.2905  -9.2526  -9.2237  -9.2031  -9.1932  -9.1787  -9.1544
    -9.1477  -9.1372  -9.1204  -9.1013  -9.0928  -9.0677  -9.0479  -9.0036
    -7.0278  -7.0114  -6.9950  -6.9845  -6.9651  -6.9622  -6.9463  -6.9260
    -6.9161  -6.8976  -6.8703  -6.8263  -6.8004  -6.7835  -6.7732  -6.7488
    -5.6995  -5.5190  -5.5123  -5.3405  -5.2454  -5.0875  -5.0741  -4.9517
    -4.9045  -4.8975  -4.8824  -4.8469  -4.8418  -4.8277  -4.8121  -4.7862
    -2.8562  -2.8331  -2.8154  -2.8086  -2.7925  -2.7797  -2.7734  -2.7682
    -2.7637  -2.7610  -2.7502  -2.7494  -2.7401  -2.7346  -2.7299  -2.7115
    -0.8963  -0.8392  -0.7795  -0.7203  -0.5421  -0.4650  -0.4346  -0.4095
    -0.3829  -0.3277  -0.2844  -0.2470   0.0117   0.0615   0.1126   0.1402
     0.1724   0.2148   0.2308   0.2950   0.3521   0.3671   0.4094   0.4229
     0.4752   0.5592   0.5936   0.6217   0.6387   0.6812   0.7029   0.7663
     0.7946   0.8459   0.8607   0.9045   0.9182   0.9672   0.9752   0.9898
     1.0112   1.0336   1.0572   1.0800   1.0924   1.1378   1.1502   1.1793
     1.2021   1.2214   1.2429   1.2562   1.2742   1.2786   1.2869   1.3181
     1.3299   1.3436   1.3591   1.4030   1.4194   1.4348   1.4643   1.4800
     1.4910   1.5231   1.5380   1.5609   1.5915   1.6554   1.6893   1.7531

          k = 0.3757-0.1266-0.3841 (300971 PWs)   bands (ev):

   -17.5882 -17.5543 -17.5455 -17.4772 -17.4641 -17.4239 -17.4236 -17.3936
   -14.3189 -14.3167 -14.3146 -14.3096 -14.2959 -14.2868 -14.2852 -14.2831
   -14.2794 -14.2781 -14.2772 -14.2769 -14.2750 -14.2718 -14.2716 -14.2714
   -14.2669 -14.2630 -14.2569 -14.2545 -14.2535 -14.2519 -14.2493 -14.2456
   -14.2453 -14.2450 -14.2448 -14.2431 -14.2406 -14.2393 -14.2330 -14.2315
   -14.2285 -14.2240 -14.2184 -14.2157 -14.2140 -14.2128 -14.2066 -14.2041
   -10.5471 -10.5367 -10.5211 -10.5004 -10.4986 -10.4859 -10.4830 -10.4553
    -9.6700  -9.6164  -9.5626  -9.5144  -9.4585  -9.4247  -9.4064  -9.3720
    -9.3034  -9.2894  -9.2545  -9.2242  -9.2047  -9.1864  -9.1823  -9.1540
    -9.1472  -9.1361  -9.1246  -9.1004  -9.0905  -9.0693  -9.0480  -9.0032
    -7.0278  -7.0114  -6.9950  -6.9846  -6.9652  -6.9621  -6.9463  -6.9261
    -6.9161  -6.8976  -6.8704  -6.8262  -6.8004  -6.7835  -6.7733  -6.7487
    -5.6995  -5.5188  -5.5132  -5.3400  -5.2448  -5.0857  -5.0759  -4.9522
    -4.9038  -4.8986  -4.8828  -4.8468  -4.8416  -4.8277  -4.8126  -4.7853
    -2.8575  -2.8336  -2.8127  -2.8100  -2.7928  -2.7782  -2.7708  -2.7698
    -2.7639  -2.7599  -2.7559  -2.7485  -2.7393  -2.7332  -2.7293  -2.7120
    -0.8945  -0.8391  -0.7769  -0.7213  -0.5582  -0.4603  -0.4392  -0.4103
    -0.3730  -0.3249  -0.2826  -0.2443   0.0086   0.0605   0.1031   0.1464
     0.1742   0.2149   0.2352   0.2950   0.3526   0.3642   0.4133   0.4193
     0.4807   0.5548   0.5836   0.6146   0.6453   0.6838   0.7046   0.7665
     0.7968   0.8432   0.8633   0.9038   0.9244   0.9659   0.9753   0.9889
     1.0099   1.0374   1.0518   1.0845   1.0921   1.1395   1.1428   1.1845
     1.1986   1.2257   1.2450   1.2554   1.2669   1.2789   1.2863   1.3196
     1.3319   1.3429   1.3581   1.4030   1.4196   1.4358   1.4579   1.4840
     1.4952   1.5130   1.5456   1.5615   1.5958   1.6513   1.6882   1.7531

          k =-0.3757-0.3798 0.1280 (300902 PWs)   bands (ev):

   -17.5882 -17.5542 -17.5455 -17.4772 -17.4641 -17.4240 -17.4235 -17.3936
   -14.3191 -14.3176 -14.3152 -14.3066 -14.2960 -14.2875 -14.2864 -14.2822
   -14.2795 -14.2792 -14.2772 -14.2769 -14.2750 -14.2717 -14.2716 -14.2702
   -14.2669 -14.2619 -14.2570 -14.2545 -14.2539 -14.2524 -14.2493 -14.2474
   -14.2456 -14.2450 -14.2450 -14.2431 -14.2393 -14.2385 -14.2330 -14.2315
   -14.2285 -14.2240 -14.2183 -14.2157 -14.2140 -14.2128 -14.2066 -14.2041
   -10.5475 -10.5367 -10.5190 -10.5015 -10.4988 -10.4850 -10.4840 -10.4557
    -9.6571  -9.5830  -9.5614  -9.5378  -9.4657  -9.4577  -9.4408  -9.3789
    -9.2909  -9.2520  -9.2442  -9.2106  -9.2039  -9.1905  -9.1782  -9.1668
    -9.1476  -9.1386  -9.1264  -9.1038  -9.0858  -9.0750  -9.0446  -8.9998
    -7.0276  -7.0120  -6.9966  -6.9835  -6.9676  -6.9643  -6.9461  -6.9204
    -6.9145  -6.8966  -6.8725  -6.8284  -6.8013  -6.7904  -6.7679  -6.7490
    -5.6962  -5.5182  -5.4897  -5.3197  -5.2742  -5.0952  -5.0708  -4.9784
    -4.9102  -4.9020  -4.8724  -4.8522  -4.8393  -4.8286  -4.8122  -4.7776
    -2.8507  -2.8380  -2.8113  -2.8025  -2.7933  -2.7786  -2.7747  -2.7707
    -2.7665  -2.7639  -2.7552  -2.7517  -2.7375  -2.7348  -2.7298  -2.7120
    -0.8667  -0.7703  -0.7544  -0.6690  -0.5584  -0.5112  -0.4685  -0.4026
    -0.3701  -0.3647  -0.3124  -0.2705   0.0447   0.1169   0.1442   0.1950
     0.2239   0.2570   0.2773   0.2878   0.3162   0.3408   0.3600   0.3921
[...]
     1.1916   1.2115   1.2234   1.2273   1.2532   1.2735   1.2950   1.3160
     1.3504   1.3577   1.3717   1.3876   1.4082   1.4180   1.4489   1.4723
     1.4942   1.5122   1.5383   1.5636   1.5848   1.6007   1.6091   1.7200

          k =-0.3754-0.3782 0.3855 (300978 PWs)   bands (ev):

   -17.5941 -17.5277 -17.5272 -17.4805 -17.4671 -17.4648 -17.4533 -17.4521
   -14.3334 -14.3290 -14.3230 -14.3186 -14.3082 -14.3005 -14.3000 -14.2965
   -14.2956 -14.2947 -14.2925 -14.2883 -14.2870 -14.2856 -14.2851 -14.2842
   -14.2830 -14.2817 -14.2755 -14.2746 -14.2729 -14.2670 -14.2637 -14.2620
   -14.2618 -14.2585 -14.2584 -14.2580 -14.2554 -14.2539 -14.2532 -14.2512
   -14.2485 -14.2474 -14.2450 -14.2447 -14.2379 -14.2286 -14.2246 -14.2161
   -10.5498 -10.5285 -10.5236 -10.5174 -10.5109 -10.5030 -10.4937 -10.4863
    -9.6339  -9.5877  -9.5575  -9.5434  -9.5036  -9.4916  -9.4471  -9.4078
    -9.2818  -9.2560  -9.2420  -9.2119  -9.1998  -9.1873  -9.1754  -9.1618
    -9.1597  -9.1410  -9.1267  -9.1161  -9.1129  -9.0821  -9.0719  -9.0341
    -7.0439  -7.0026  -6.9914  -6.9713  -6.9680  -6.9648  -6.9638  -6.9596
    -6.9419  -6.8788  -6.8697  -6.8220  -6.8171  -6.8079  -6.7985  -6.7903
    -5.5923  -5.4232  -5.4130  -5.3907  -5.2439  -5.2375  -5.2119  -5.0830
    -4.9053  -4.8874  -4.8750  -4.8631  -4.8587  -4.8513  -4.8405  -4.8251
    -2.8625  -2.8485  -2.8137  -2.8040  -2.7979  -2.7916  -2.7870  -2.7778
    -2.7732  -2.7705  -2.7672  -2.7573  -2.7504  -2.7490  -2.7476  -2.7412
    -0.6104  -0.5596  -0.5263  -0.4951  -0.4750  -0.4185  -0.3918  -0.3836
    -0.3527  -0.3301  -0.3065  -0.2290   0.0153   0.0651   0.0810   0.1280
     0.1469   0.1672   0.1873   0.2087   0.2328   0.2462   0.2668   0.3282
     0.5393   0.5629   0.5793   0.5895   0.6337   0.6675   0.6888   0.7107
     0.7251   0.7542   0.8048   0.8347   0.8545   0.8727   0.9020   0.9072
     0.9172   0.9431   0.9525   0.9779   1.0057   1.0297   1.0627   1.0803
     1.2069   1.2338   1.2491   1.2633   1.2813   1.3072   1.3123   1.3229
     1.3569   1.3747   1.3910   1.3981   1.4232   1.4315   1.4423   1.4638
     1.4730   1.4805   1.4976   1.5105   1.5246   1.5317   1.5487   1.5546

          k =-0.3754 0.3782-0.3855 (300978 PWs)   bands (ev):

   -17.5941 -17.5277 -17.5272 -17.4805 -17.4671 -17.4648 -17.4533 -17.4521
   -14.3334 -14.3290 -14.3230 -14.3186 -14.3082 -14.3004 -14.3000 -14.2965
   -14.2956 -14.2947 -14.2925 -14.2883 -14.2870 -14.2856 -14.2851 -14.2842
   -14.2830 -14.2817 -14.2755 -14.2746 -14.2729 -14.2670 -14.2637 -14.2620
   -14.2618 -14.2585 -14.2584 -14.2580 -14.2554 -14.2539 -14.2532 -14.2512
   -14.2485 -14.2474 -14.2450 -14.2447 -14.2379 -14.2286 -14.2246 -14.2161
   -10.5498 -10.5282 -10.5241 -10.5184 -10.5119 -10.5010 -10.4939 -10.4857
    -9.6459  -9.5908  -9.5434  -9.5287  -9.4995  -9.4868  -9.4618  -9.4185
    -9.2803  -9.2614  -9.2344  -9.2121  -9.2023  -9.1844  -9.1788  -9.1682
    -9.1558  -9.1436  -9.1252  -9.1180  -9.1008  -9.0883  -9.0711  -9.0329
    -7.0439  -7.0026  -6.9914  -6.9711  -6.9678  -6.9649  -6.9640  -6.9600
    -6.9421  -6.8788  -6.8697  -6.8220  -6.8171  -6.8079  -6.7985  -6.7902
    -5.5901  -5.4145  -5.4100  -5.4019  -5.2432  -5.2376  -5.2295  -5.0634
    -4.9064  -4.8880  -4.8798  -4.8652  -4.8573  -4.8505  -4.8382  -4.8258
    -2.8628  -2.8487  -2.8139  -2.8019  -2.7999  -2.7901  -2.7861  -2.7805
    -2.7760  -2.7707  -2.7652  -2.7568  -2.7514  -2.7488  -2.7466  -2.7403
    -0.6660  -0.5898  -0.5215  -0.4857  -0.4402  -0.3998  -0.3858  -0.3734
    -0.3253  -0.3046  -0.2292  -0.2046  -0.0385  -0.0150   0.0363   0.0486
     0.1143   0.1736   0.1781   0.2088   0.2711   0.2866   0.2986   0.3294
     0.5103   0.5698   0.5830   0.6234   0.6557   0.6710   0.6904   0.7068
     0.7308   0.7842   0.7932   0.8123   0.8505   0.8626   0.8796   0.9013
     0.9323   0.9444   0.9610   0.9740   1.0033   1.0212   1.0654   1.1024
     1.2088   1.2422   1.2585   1.2663   1.2802   1.2929   1.3080   1.3392
     1.3498   1.3789   1.3881   1.3983   1.4122   1.4241   1.4293   1.4500
     1.4616   1.4708   1.4910   1.4967   1.5123   1.5485   1.5753   1.6006

          k = 0.3754-0.3782-0.3855 (300978 PWs)   bands (ev):

   -17.5941 -17.5277 -17.5272 -17.4805 -17.4671 -17.4648 -17.4533 -17.4521
   -14.3334 -14.3290 -14.3230 -14.3186 -14.3082 -14.3004 -14.3000 -14.2965
   -14.2956 -14.2947 -14.2925 -14.2883 -14.2870 -14.2856 -14.2851 -14.2842
   -14.2830 -14.2817 -14.2755 -14.2746 -14.2729 -14.2670 -14.2637 -14.2620
   -14.2618 -14.2585 -14.2584 -14.2580 -14.2554 -14.2539 -14.2532 -14.2512
   -14.2485 -14.2474 -14.2450 -14.2447 -14.2379 -14.2286 -14.2246 -14.2161
   -10.5499 -10.5283 -10.5239 -10.5185 -10.5120 -10.5010 -10.4938 -10.4857
    -9.6461  -9.5911  -9.5433  -9.5280  -9.4993  -9.4869  -9.4623  -9.4184
    -9.2820  -9.2563  -9.2390  -9.2114  -9.2023  -9.1835  -9.1818  -9.1664
    -9.1553  -9.1411  -9.1243  -9.1208  -9.1010  -9.0897  -9.0700  -9.0327
    -7.0439  -7.0026  -6.9914  -6.9711  -6.9679  -6.9651  -6.9637  -6.9600
    -6.9421  -6.8788  -6.8697  -6.8220  -6.8171  -6.8078  -6.7984  -6.7903
    -5.5905  -5.4144  -5.4078  -5.4037  -5.2418  -5.2370  -5.2317  -5.0635
    -4.9064  -4.8882  -4.8798  -4.8651  -4.8571  -4.8505  -4.8385  -4.8255
    -2.8617  -2.8487  -2.8144  -2.8052  -2.7982  -2.7892  -2.7865  -2.7810
    -2.7757  -2.7711  -2.7674  -2.7572  -2.7537  -2.7471  -2.7438  -2.7388
    -0.6579  -0.5963  -0.5193  -0.4879  -0.4400  -0.3988  -0.3909  -0.3699
    -0.3242  -0.3163  -0.2288  -0.2082  -0.0250  -0.0087   0.0331   0.0541
     0.1148   0.1699   0.1882   0.2010   0.2718   0.2834   0.2954   0.3252
     0.5122   0.5696   0.5828   0.6254   0.6557   0.6686   0.6901   0.7064
     0.7304   0.7730   0.7961   0.8159   0.8518   0.8692   0.8812   0.9023
     0.9289   0.9413   0.9575   0.9794   1.0028   1.0208   1.0651   1.1049
     1.2067   1.2459   1.2555   1.2700   1.2770   1.2930   1.3149   1.3236
     1.3553   1.3777   1.3971   1.4004   1.4102   1.4210   1.4282   1.4439
     1.4655   1.4730   1.4850   1.5004   1.5192   1.5450   1.5743   1.5995

     highest occupied level (ev):     2.0624

!    total energy              =  -16491.14970147 Ry
     Harris-Foulkes estimate   =  -16491.14970147 Ry
     estimated scf accuracy    <          1.7E-09 Ry

     total all-electron energy =   -677247.818966 Ry

     The total energy is the sum of the following terms:

     one-electron contribution =    -832.58327667 Ry
     hartree contribution      =     601.67626265 Ry
     xc contribution           =    -755.71840491 Ry
     ewald contribution        =   -1149.69738072 Ry
     DFT-D3 Dispersion         =      -0.62136293 Ry
     one-center paw contrib.   =  -14354.20553888 Ry

     convergence has been achieved in   8 iterations

     Forces acting on atoms (cartesian axes, Ry/au):

     atom    1 type  1   force =    -0.00009432   -0.00010778   -0.00056054
     atom    2 type  1   force =    -0.00025639    0.00024778    0.00012691
     atom    3 type  1   force =    -0.00009336   -0.00013099    0.00024595
     atom    4 type  1   force =    -0.00002410   -0.00043701   -0.00047852
     atom    5 type  1   force =     0.00025495   -0.00027242   -0.00056359
     atom    6 type  1   force =     0.00021478   -0.00067925    0.00010423
     atom    7 type  1   force =    -0.00034003    0.00008140   -0.00059708
     atom    8 type  1   force =    -0.00001284    0.00048139    0.00029863
     atom    9 type  2   force =    -0.00021373    0.00027052   -0.00010365
     atom   10 type  2   force =    -0.00046540   -0.00101166    0.00041406
     atom   11 type  2   force =     0.00038594   -0.00057044   -0.00037471
     atom   12 type  2   force =    -0.00045677    0.00030257    0.00014071
     atom   13 type  2   force =    -0.00060109   -0.00017418   -0.00019469
     atom   14 type  2   force =    -0.00043593    0.00033539    0.00049219
     atom   15 type  2   force =     0.00000067    0.00012671    0.00061607
     atom   16 type  2   force =     0.00004287    0.00053326   -0.00030876
     atom   17 type  2   force =    -0.00008068    0.00028820    0.00049985
     atom   18 type  2   force =    -0.00009002   -0.00066433   -0.00029537
     atom   19 type  2   force =     0.00027077   -0.00022130    0.00028006
     atom   20 type  2   force =     0.00032365   -0.00072677   -0.00040585
     atom   21 type  2   force =    -0.00043041   -0.00003404    0.00015837
     atom   22 type  2   force =     0.00011770   -0.00101204   -0.00030571
     atom   23 type  2   force =    -0.00052715    0.00073439   -0.00074747
     atom   24 type  2   force =    -0.00025431   -0.00020878   -0.00009125
     atom   25 type  2   force =     0.00029748   -0.00067237    0.00013360
     atom   26 type  2   force =     0.00010303   -0.00070036    0.00088681
     atom   27 type  2   force =    -0.00021442    0.00026705    0.00004009
     atom   28 type  2   force =     0.00005944    0.00045912    0.00049115
     atom   29 type  2   force =     0.00018267   -0.00029115   -0.00079343
     atom   30 type  2   force =    -0.00026244    0.00026259    0.00013754
     atom   31 type  2   force =    -0.00054219   -0.00014296    0.00009451
     atom   32 type  2   force =    -0.00045913    0.00052991    0.00092026
     atom   33 type  3   force =    -0.00030239   -0.00033194    0.00003934
     atom   34 type  3   force =    -0.00018768    0.00009296   -0.00028578
     atom   35 type  3   force =     0.00026175   -0.00017087    0.00042000
     atom   36 type  3   force =     0.00018127   -0.00038089   -0.00058429
     atom   37 type  3   force =    -0.00038483   -0.00002729   -0.00133685
     atom   38 type  3   force =    -0.00031243   -0.00014648    0.00000529
     atom   39 type  3   force =    -0.00031541    0.00035922    0.00017182
     atom   40 type  3   force =     0.00045349    0.00062702   -0.00030885
     atom   41 type  4   force =     0.00073401   -0.00016090    0.00064539
     atom   42 type  4   force =    -0.00013383    0.00078626    0.00010483
     atom   43 type  4   force =    -0.00123576    0.00076694   -0.00164035
     atom   44 type  4   force =     0.00033126   -0.00096129    0.00036317
     atom   45 type  4   force =     0.00033842    0.00052786    0.00151848
     atom   46 type  4   force =     0.00047364   -0.00045847   -0.00019942
     atom   47 type  4   force =     0.00057643   -0.00017055   -0.00063935
     atom   48 type  4   force =    -0.00126444    0.00002224    0.00020510
     atom   49 type  5   force =     0.00106886    0.00037989    0.00004152
     atom   50 type  5   force =     0.00075611   -0.00089128   -0.00045422
     atom   51 type  5   force =     0.00051214    0.00000578    0.00049318
     atom   52 type  5   force =    -0.00073195    0.00107752    0.00046569
     atom   53 type  5   force =    -0.00060286   -0.00070721   -0.00031581
     atom   54 type  5   force =     0.00004092   -0.00013171   -0.00060269
     atom   55 type  5   force =    -0.00076299    0.00077332    0.00019641
     atom   56 type  5   force =    -0.00009780    0.00002658   -0.00027140
     atom   57 type  5   force =    -0.00037455    0.00073566   -0.00031548
     atom   58 type  5   force =     0.00029192   -0.00049960   -0.00039588
     atom   59 type  5   force =    -0.00028903    0.00080043    0.00033790
     atom   60 type  5   force =     0.00066834   -0.00074180    0.00054809
     atom   61 type  5   force =    -0.00151902    0.00000677   -0.00129517
     atom   62 type  5   force =    -0.00063647    0.00086723   -0.00119395
     atom   63 type  5   force =     0.00159495    0.00263281    0.00040191
     atom   64 type  5   force =    -0.00231001   -0.00124134   -0.00061921
     atom   65 type  5   force =     0.00031403    0.00012098    0.00292287
     atom   66 type  5   force =     0.00297609   -0.00007653    0.00088963
     atom   67 type  5   force =     0.00089768   -0.00110582   -0.00016921
     atom   68 type  5   force =     0.00065390   -0.00004793    0.00030166
     atom   69 type  5   force =     0.00072481   -0.00134736    0.00023341
     atom   70 type  5   force =    -0.00056377    0.00097878    0.00012183
     atom   71 type  5   force =    -0.00068616   -0.00044223   -0.00044273
     atom   72 type  5   force =    -0.00088391    0.00031861   -0.00005206
     atom   73 type  5   force =    -0.00047428    0.00037731   -0.00035494
     atom   74 type  5   force =    -0.00011942    0.00015754   -0.00016857
     atom   75 type  5   force =    -0.00059523    0.00095458   -0.00122798
     atom   76 type  5   force =     0.00104427   -0.00059401    0.00072406
     atom   77 type  5   force =    -0.00004360    0.00073671    0.00019848
     atom   78 type  5   force =     0.00070559   -0.00016990    0.00039656
     atom   79 type  5   force =     0.00005528   -0.00080909   -0.00002675
     atom   80 type  5   force =     0.00104755   -0.00006929    0.00004538
     atom   81 type  5   force =     0.00060065   -0.00007598   -0.00008660
     atom   82 type  5   force =    -0.00023196   -0.00040540    0.00043446
     atom   83 type  5   force =     0.00000522    0.00034520   -0.00037469
     atom   84 type  5   force =    -0.00030785   -0.00017618    0.00071822
     atom   85 type  5   force =    -0.00013577   -0.00100312    0.00020499
     atom   86 type  5   force =     0.00032309    0.00017920   -0.00035768
     atom   87 type  5   force =     0.00149436    0.00065242   -0.00029356
     atom   88 type  5   force =     0.00094303   -0.00055386    0.00092989
     atom   89 type  5   force =     0.00075646    0.00035157   -0.00091830
     atom   90 type  5   force =    -0.00119025   -0.00035206    0.00097809
     atom   91 type  5   force =    -0.00000902   -0.00041081   -0.00095940
     atom   92 type  5   force =    -0.00071854    0.00114114   -0.00027602
     atom   93 type  5   force =     0.00015617   -0.00033923    0.00076940
     atom   94 type  5   force =    -0.00015242    0.00073316   -0.00087908
     atom   95 type  5   force =     0.00048297   -0.00020079    0.00000703
     atom   96 type  5   force =    -0.00029031    0.00080304    0.00095184

     Total force =     0.011058     Total SCF correction =     0.000133


     Computing stress (Cartesian axis) and pressure

          total   stress  (Ry/bohr**3)                   (kbar)     P=   -0.14
  -0.00000040   0.00000565   0.00000276         -0.06      0.83      0.41
   0.00000565  -0.00000209   0.00000008          0.83     -0.31      0.01
   0.00000276   0.00000008  -0.00000046          0.41      0.01     -0.07


     number of scf cycles    =   8
     number of bfgs steps    =   7

     enthalpy old            =  -16491.1494786561 Ry
     enthalpy new            =  -16491.1497014685 Ry

     CASE: enthalpy_new < enthalpy_old

     new trust radius        =       0.0145179323 bohr
     new conv_thr            =       0.0000000022 Ry

     new unit-cell volume =  13575.33867 a.u.^3 (  2011.65762 Ang^3 )
     density =      4.09911 g/cm^3

CELL_PARAMETERS (alat= 24.15259000)
   0.999076247   0.000000000   0.000000000
   0.000000000   0.992013917   0.000000000
   0.000000000   0.000000000   0.972172085

ATOMIC_POSITIONS (crystal)
Pb       0.001847379   0.003209572   0.001562582
Pb       0.001665331   0.004114648   0.501665522
Pb       0.002824927   0.506003977   0.000403297
Pb       0.001604483   0.507572265   0.502648057
Pb       0.503298311   0.003877744   0.002432487
Pb       0.502813757   0.004557803   0.502371261
Pb       0.505901771   0.503159665   0.003121918
Pb       0.504609909   0.505523031   0.501350003
I        0.253427145   0.010572743  -0.030831981
I        0.033218252   0.255763280   0.034451955
I        0.041636330  -0.043775733   0.250954108
I        0.253367176   0.022058057   0.532118871
I        0.023026090   0.257297679   0.464115798
I       -0.044024079   0.047092697   0.750888557
I        0.254956980   0.536977032   0.022170017
I        0.007083012   0.754918880  -0.046757934
I       -0.036209077   0.545967078   0.250646965
I        0.254088832   0.530951861   0.480683251
I        0.019835004   0.757201251   0.541941858
I        0.035209525   0.455555602   0.751149628
I        0.752910073   0.033295568   0.034480161
I        0.507116817   0.254404135  -0.036767506
I        0.458762772   0.043883093   0.251816464
I        0.752815204   0.023837925   0.466826015
I        0.515967375   0.255898852   0.535158037
I        0.541755416  -0.040931678   0.751326004
I        0.754497442   0.508001187  -0.031140792
I        0.532501235   0.753665492   0.033241965
I        0.539432455   0.458624223   0.252180656
I        0.753713422   0.522086625   0.532559456
I        0.522860357   0.755695418   0.464340788
I        0.471558860   0.536162995   0.751605885
C        0.286335698   0.289003897   0.248214556
C        0.279944609   0.287455157   0.748175570
C        0.286846473   0.789757115   0.249106377
C        0.282953634   0.778960132   0.745457480
C        0.784775096   0.290601261   0.248356611
C        0.784103141   0.287573000   0.747061972
C        0.791086634   0.786398270   0.247619121
C        0.783776554   0.787948032   0.745201492
N        0.207637002   0.201934060   0.253482791
N        0.203358495   0.198574310   0.754530685
N        0.206929178   0.703906462   0.253725658
N        0.212920384   0.685016391   0.754750423
N        0.700168769   0.209412588   0.254705292
N        0.697987950   0.207908407   0.751157520
N        0.707288077   0.704303474   0.252696458
N        0.705779921   0.701302055   0.756619067
H        0.158654293   0.203366050   0.186030996
H        0.159028379   0.210171837   0.320740260
H        0.243993074   0.129097453   0.257163501
H        0.335899751   0.277007468   0.177361243
H        0.334446808   0.287168060   0.321111868
H        0.244738770   0.364279927   0.242458317
H        0.210380956   0.148763052   0.687844082
H        0.127025843   0.225537498   0.757388813
H        0.215878263   0.151710710   0.822509012
H        0.263883464   0.333111714   0.675242313
H        0.359112031   0.254599733   0.745331913
H        0.270430201   0.337560191   0.819220775
H        0.211749163   0.655567700   0.185946190
H        0.131959107   0.734376227   0.257727449
H        0.217358155   0.655389936   0.320889734
H        0.272150247   0.838572045   0.178140792
H        0.364722417   0.754437897   0.243432163
H        0.279765693   0.838018112   0.321623084
H        0.212902391   0.640904908   0.684569703
H        0.136293468   0.707054723   0.770390207
H        0.235764200   0.636047010   0.817382848
H        0.257329743   0.826434165   0.676828669
H        0.363249301   0.751589455   0.733343632
H        0.277563912   0.824903787   0.819782551
H        0.702956944   0.159277272   0.187937334
H        0.626979477   0.244328725   0.257603013
H        0.708951484   0.161620557   0.322683144
H        0.772738104   0.337976226   0.175743990
H        0.860611382   0.250504469   0.244999885
H        0.780351643   0.340974501   0.319774946
H        0.649503992   0.214127248   0.683672275
H        0.649873258   0.218751751   0.818250367
H        0.727168591   0.131964559   0.754022711
H        0.832144798   0.272418587   0.675803133
H        0.831870192   0.280135855   0.819728033
H        0.749483816   0.366301088   0.742353253
H        0.658222901   0.709386878   0.185516944
H        0.659565896   0.714259971   0.320356674
H        0.738554620   0.629234807   0.255416855
H        0.838257657   0.772909781   0.175367774
H        0.839994150   0.780065569   0.319619305
H        0.754345372   0.864227561   0.243705871
H        0.707810749   0.651057989   0.690293754
H        0.630559649   0.730134507   0.763596379
H        0.720353925   0.654524088   0.823946114
H        0.764591826   0.833838438   0.673457639
H        0.861703050   0.753467802   0.737312232
H        0.780248794   0.838150532   0.816486833



     Writing output data file MAPbI_vcrelax_PAW6.save/
     NEW-OLD atomic charge density approx. for the potential
