
     Program PWSCF v.6.4 starts on  2May2020 at 22:20: 2 

     This program is part of the open-source Quantum ESPRESSO suite
     for quantum simulation of materials; please cite
         "P. Giannozzi et al., J. Phys.:Condens. Matter 21 395502 (2009);
         "P. Giannozzi et al., J. Phys.:Condens. Matter 29 465901 (2017);
          URL http://www.quantum-espresso.org", 
     in publications or presentations arising from this work. More details at
     http://www.quantum-espresso.org/quote

     Parallel version (MPI), running on    32 processors

     MPI processes distributed on     1 nodes
     K-points division:     npool     =       4
     R & G space division:  proc/nbgrp/npool/nimage =       8
     Waiting for input...
     Reading input from standard input
     Message from routine read_cards :
     DEPRECATED: no units specified in CELL_PARAMETERS card

     Current dimensions of program PWSCF are:
     Max number of different atomic species (ntypx) = 10
     Max number of k-points (npk) =  40000
     Max angular momentum in pseudopotentials (lmaxx) =  3
               file Pb.pbe-dn-kjpaw_psl.1.0.0.UPF: wavefunction(s)  6S 6P 5D renormalized
               file I.pbe-n-kjpaw_psl.1.0.0.UPF: wavefunction(s)  5S renormalized
               file C.pbe-n-kjpaw_psl.1.0.0.UPF: wavefunction(s)  2S 2P renormalized
               file N.pbe-n-kjpaw_psl.1.0.0.UPF: wavefunction(s)  2S renormalized
               file H.pbe-kjpaw_psl.1.0.0.UPF: wavefunction(s)  1S renormalized

     --------------------------------------------
     Parameters for DFT-D3 Dispersion Correction:
     --------------------------------------------
       Reference C6 values for interpolation: 

         atom   Coordination number   C6
         H          0.912             6.05
         H          0.000            15.18
         C          0.000            98.23
         C          0.987            86.49
         C          1.998            58.72
         C          2.999            51.56
         C          3.984            36.41
         N          0.000            50.54
         N          0.994            44.25
         N          2.014            39.35
         N          2.990            31.16
         I          0.000           703.93
         I          0.997           717.00
         Pb         0.000          1477.63
         Pb         0.938          1266.00
         Pb         1.936          1088.91
         Pb         2.908          1048.37
         Pb         3.910           910.57

       Values used:

         atom   Coordination number  R0_AB[au]  C6      C8
         Pb         4.799            4.041    910.57 144158.42
         Pb         4.803            4.041    910.57 144158.41
         Pb         4.822            4.041    910.57 144158.37
         Pb         4.835            4.041    910.57 144158.34
         Pb         4.822            4.041    910.57 144158.37
         Pb         4.818            4.041    910.57 144158.37
         Pb         4.851            4.041    910.57 144158.31
         Pb         4.847            4.041    910.57 144158.32
         I          1.930            3.532    717.00  65855.99
         I          1.965            3.532    717.00  65856.00
         I          1.947            3.532    717.00  65855.99
         I          1.927            3.532    717.00  65855.99
         I          1.964            3.532    717.00  65856.00
         I          1.981            3.532    717.00  65856.00
         I          1.886            3.532    717.00  65855.99
         I          1.949            3.532    717.00  65855.99
         I          1.972            3.532    717.00  65856.00
         I          1.901            3.532    717.00  65855.99
         I          1.959            3.532    717.00  65856.00
         I          1.989            3.532    717.00  65856.00
         I          1.915            3.532    717.00  65855.99
         I          1.981            3.532    717.00  65856.00
         I          1.977            3.532    717.00  65856.00
         I          1.925            3.532    717.00  65855.99
         I          1.987            3.532    717.00  65856.00
         I          1.964            3.532    717.00  65856.00
         I          1.962            3.532    717.00  65856.00
         I          1.996            3.532    717.00  65856.00
         I          1.976            3.532    717.00  65856.00
         I          1.974            3.532    717.00  65856.00
         I          1.990            3.532    717.00  65856.00
         I          2.007            3.532    717.00  65856.00
         C          4.039            2.750     36.59   1058.24
         C          4.042            2.750     36.59   1058.12
         C          4.042            2.750     36.59   1058.12
         C          4.037            2.750     36.59   1058.30
         C          4.040            2.750     36.59   1058.17
         C          4.044            2.750     36.58   1058.04
         C          4.043            2.750     36.58   1058.08
         C          4.047            2.750     36.58   1057.91
         N          4.066            2.478     31.16    687.49
         N          4.060            2.478     31.16    687.49
         N          4.059            2.478     31.16    687.49
         N          4.068            2.478     31.16    687.49
         N          4.062            2.478     31.16    687.49
         N          4.066            2.478     31.16    687.49
         N          4.065            2.478     31.16    687.49
         N          4.060            2.478     31.16    687.49
         H          1.078            2.062      6.13     74.06
         H          1.072            2.062      6.13     74.09
         H          1.053            2.062      6.14     74.23
         H          1.008            2.062      6.17     74.64
         H          1.007            2.062      6.17     74.64
         H          1.007            2.062      6.18     74.65
         H          1.076            2.062      6.13     74.07
         H          1.039            2.062      6.15     74.34
         H          1.073            2.062      6.13     74.09
         H          1.008            2.062      6.17     74.63
         H          1.012            2.062      6.17     74.59
         H          1.008            2.062      6.17     74.63
         H          1.065            2.062      6.13     74.14
         H          1.045            2.062      6.15     74.29
         H          1.065            2.062      6.13     74.14
         H          1.008            2.062      6.17     74.63
         H          1.011            2.062      6.17     74.60
         H          1.008            2.062      6.17     74.63
         H          1.042            2.062      6.15     74.32
         H          1.042            2.062      6.15     74.32
         H          1.032            2.062      6.15     74.40
         H          1.013            2.062      6.17     74.58
         H          1.013            2.062      6.17     74.58
         H          1.012            2.062      6.17     74.59
         H          1.076            2.062      6.13     74.07
         H          1.044            2.062      6.15     74.30
         H          1.078            2.062      6.13     74.06
         H          1.008            2.062      6.17     74.63
         H          1.010            2.062      6.17     74.61
         H          1.008            2.062      6.17     74.63
         H          1.068            2.062      6.13     74.12
         H          1.068            2.062      6.13     74.12
         H          1.051            2.062      6.14     74.24
         H          1.008            2.062      6.17     74.63
         H          1.008            2.062      6.17     74.63
         H          1.008            2.062      6.17     74.63
         H          1.075            2.062      6.13     74.08
         H          1.070            2.062      6.13     74.10
         H          1.048            2.062      6.14     74.27
         H          1.008            2.062      6.17     74.63
         H          1.008            2.062      6.17     74.63
         H          1.008            2.062      6.17     74.63
         H          1.067            2.062      6.13     74.13
         H          1.037            2.062      6.15     74.36
         H          1.065            2.062      6.13     74.14
         H          1.009            2.062      6.17     74.62
         H          1.015            2.062      6.17     74.56
         H          1.009            2.062      6.17     74.62

         Molecular C6 ( Ry / a.u.^6 ) =   1196385.31


     Subspace diagonalization in iterative solution of the eigenvalue problem:
     a serial algorithm will be used


     Parallelization info
     --------------------
     sticks:   dense  smooth     PW     G-vecs:    dense   smooth      PW
     Min        2751    2751    709               299655   299655   39233
     Max        2752    2752    710               299661   299661   39236
     Sum       22009   22009   5677              2397263  2397263  313875



     bravais-lattice index     =            0
     lattice parameter (alat)  =      24.1526  a.u.
     unit-cell volume          =   13498.7783 (a.u.)^3
     number of atoms/cell      =           96
     number of atomic types    =            5
     number of electrons       =       400.00
     number of Kohn-Sham states=          200
     kinetic-energy cutoff     =     120.0000  Ry
     charge density cutoff     =     480.0000  Ry
     convergence threshold     =      1.0E-07
     mixing beta               =       0.7000
     number of iterations used =            8  plain     mixing
     Exchange-correlation      = SLA PW PBX PBC ( 1  4  3  4 0 0)
     nstep                     =          150


     celldm(1)=  24.152590  celldm(2)=   0.000000  celldm(3)=   0.000000
     celldm(4)=   0.000000  celldm(5)=   0.000000  celldm(6)=   0.000000

     crystal axes: (cart. coord. in units of alat)
               a(1) = (   1.002930   0.000000   0.000000 )  
               a(2) = (   0.000000   0.985260   0.000000 )  
               a(3) = (   0.000000   0.000000   0.969576 )  

     reciprocal axes: (cart. coord. in units 2 pi/alat)
               b(1) = (  0.997079  0.000000  0.000000 )  
               b(2) = (  0.000000  1.014960  0.000000 )  
               b(3) = (  0.000000  0.000000  1.031379 )  


     PseudoPot. # 1 for Pb read from file:
     ../Pseudopotential/Pb.pbe-dn-kjpaw_psl.1.0.0.UPF
     MD5 check sum: 684fc8fbce61a260853528575e4d9ab7
     Pseudo is Projector augmented-wave + core cor, Zval = 14.0
     Generated using "atomic" code by A. Dal Corso v.6.3
     Shape of augmentation charge: PSQ
     Using radial grid of 1281 points,  6 beta functions with: 
                l(1) =   0
                l(2) =   0
                l(3) =   1
                l(4) =   1
                l(5) =   2
                l(6) =   2
     Q(r) pseudized with 0 coefficients 


     PseudoPot. # 2 for I  read from file:
     ../Pseudopotential/I.pbe-n-kjpaw_psl.1.0.0.UPF
     MD5 check sum: cd3d296c3308a581e1559a0c8a554cb5
     Pseudo is Projector augmented-wave + core cor, Zval =  7.0
     Generated using "atomic" code by A. Dal Corso v.6.3
     Shape of augmentation charge: PSQ
     Using radial grid of 1247 points,  6 beta functions with: 
                l(1) =   0
                l(2) =   0
                l(3) =   1
                l(4) =   1
                l(5) =   2
                l(6) =   2
     Q(r) pseudized with 0 coefficients 


     PseudoPot. # 3 for C  read from file:
     ../Pseudopotential/C.pbe-n-kjpaw_psl.1.0.0.UPF
     MD5 check sum: 5f16ad9a65e90284d1d834d4ab3b0f7d
     Pseudo is Projector augmented-wave + core cor, Zval =  4.0
     Generated using "atomic" code by A. Dal Corso v.6.3
     Shape of augmentation charge: PSQ
     Using radial grid of 1073 points,  4 beta functions with: 
                l(1) =   0
                l(2) =   0
                l(3) =   1
                l(4) =   1
     Q(r) pseudized with 0 coefficients 


     PseudoPot. # 4 for N  read from file:
     ../Pseudopotential/N.pbe-n-kjpaw_psl.1.0.0.UPF
     MD5 check sum: 14c48229446f9f2d411169a3abcbc3fa
     Pseudo is Projector augmented-wave + core cor, Zval =  5.0
     Generated using "atomic" code by A. Dal Corso v.6.3
     Shape of augmentation charge: PSQ
     Using radial grid of 1085 points,  4 beta functions with: 
                l(1) =   0
                l(2) =   0
                l(3) =   1
                l(4) =   1
     Q(r) pseudized with 0 coefficients 


     PseudoPot. # 5 for H  read from file:
     ../Pseudopotential/H.pbe-kjpaw_psl.1.0.0.UPF
     MD5 check sum: d81a744832360e4a8af0b0b5b123bc2a
     Pseudo is Projector augmented-wave, Zval =  1.0
     Generated using "atomic" code by A. Dal Corso v.6.3MaX
     Shape of augmentation charge: PSQ
     Using radial grid of  929 points,  2 beta functions with: 
                l(1) =   0
                l(2) =   0
     Q(r) pseudized with 0 coefficients 


     atomic species   valence    mass     pseudopotential
        Pb            14.00   207.97600     Pb( 1.00)
        I              7.00   126.90400     I ( 1.00)
        C              4.00    12.00000     C ( 1.00)
        N              5.00    14.00300     N ( 1.00)
        H              1.00     1.00700     H ( 1.00)

     No symmetry found



   Cartesian axes

     site n.     atom                  positions (alat units)
         1           Pb  tau(   1) = (   0.0016535   0.0022006  -0.0008540  )
         2           Pb  tau(   2) = (  -0.0001375   0.0031018   0.4845565  )
         3           Pb  tau(   3) = (   0.0039169   0.4969547  -0.0011057  )
         4           Pb  tau(   4) = (   0.0012173   0.4977185   0.4862927  )
         5           Pb  tau(   5) = (   0.5031110   0.0014423   0.0005342  )
         6           Pb  tau(   6) = (   0.5018658   0.0027003   0.4855812  )
         7           Pb  tau(   7) = (   0.5078188   0.4957780   0.0026965  )
         8           Pb  tau(   8) = (   0.5063773   0.4958765   0.4867565  )
         9           I   tau(   9) = (   0.2537233   0.0163639  -0.0328090  )
        10           I   tau(  10) = (   0.0282642   0.2490049   0.0413051  )
        11           I   tau(  11) = (   0.0401809  -0.0474510   0.2416230  )
        12           I   tau(  12) = (   0.2519487   0.0236817   0.5158649  )
        13           I   tau(  13) = (   0.0220888   0.2510998   0.4414295  )
        14           I   tau(  14) = (  -0.0409492   0.0535571   0.7267134  )
        15           I   tau(  15) = (   0.2562780   0.5239223   0.0269022  )
        16           I   tau(  16) = (   0.0157313   0.7416179  -0.0517942  )
        17           I   tau(  17) = (  -0.0323175   0.5425611   0.2424180  )
        18           I   tau(  18) = (   0.2542191   0.5242660   0.4638973  )
        19           I   tau(  19) = (   0.0159339   0.7438574   0.5298432  )
        20           I   tau(  20) = (   0.0337520   0.4389581   0.7274259  )
        21           I   tau(  21) = (   0.7551170   0.0250269   0.0317639  )
        22           I   tau(  22) = (   0.5196363   0.2480412  -0.0403173  )
        23           I   tau(  23) = (   0.4628041   0.0518672   0.2431336  )
        24           I   tau(  24) = (   0.7532596   0.0262614   0.4531481  )
        25           I   tau(  25) = (   0.5188412   0.2486867   0.5300571  )
        26           I   tau(  26) = (   0.5351507  -0.0503400   0.7280346  )
        27           I   tau(  27) = (   0.7576678   0.5127792  -0.0295184  )
        28           I   tau(  28) = (   0.5299312   0.7409494   0.0467624  )
        29           I   tau(  29) = (   0.5403738   0.4442838   0.2451168  )
        30           I   tau(  30) = (   0.7559588   0.5149960   0.5172305  )
        31           I   tau(  31) = (   0.5275147   0.7415258   0.4424812  )
        32           I   tau(  32) = (   0.4744095   0.5396654   0.7300020  )
        33           C   tau(  33) = (   0.2773196   0.2881390   0.2456779  )
        34           C   tau(  34) = (   0.2859953   0.2883316   0.7304698  )
        35           C   tau(  35) = (   0.2909061   0.7821891   0.2436580  )
        36           C   tau(  36) = (   0.2707206   0.7651544   0.7191855  )
        37           C   tau(  37) = (   0.7908663   0.2878596   0.2394706  )
        38           C   tau(  38) = (   0.7734174   0.2836614   0.7273130  )
        39           C   tau(  39) = (   0.7872325   0.7755324   0.2441140  )
        40           C   tau(  40) = (   0.7861970   0.7874182   0.7254392  )
        41           N   tau(  41) = (   0.2147987   0.1895813   0.2443406  )
        42           N   tau(  42) = (   0.2029147   0.2062546   0.7293098  )
        43           N   tau(  43) = (   0.2038468   0.7042394   0.2448569  )
        44           N   tau(  44) = (   0.2168692   0.6617750   0.7275182  )
        45           N   tau(  45) = (   0.7037074   0.2101416   0.2417673  )
        46           N   tau(  46) = (   0.7109332   0.1850748   0.7288950  )
        47           N   tau(  47) = (   0.7213622   0.6791333   0.2454725  )
        48           N   tau(  48) = (   0.7060726   0.7025333   0.7294935  )
        49           H   tau(  49) = (   0.1663044   0.1870543   0.1788629  )
        50           H   tau(  50) = (   0.1661177   0.1854820   0.3095275  )
        51           H   tau(  51) = (   0.2637624   0.1248276   0.2436964  )
        52           H   tau(  52) = (   0.3270705   0.2901910   0.1760696  )
        53           H   tau(  53) = (   0.3257762   0.2890591   0.3162253  )
        54           H   tau(  54) = (   0.2235537   0.3547452   0.2456964  )
        55           H   tau(  55) = (   0.2089952   0.1587196   0.6632072  )
        56           H   tau(  56) = (   0.1291205   0.2398712   0.7296785  )
        57           H   tau(  57) = (   0.2089123   0.1569983   0.7941050  )
        58           H   tau(  58) = (   0.2770420   0.3374949   0.6609709  )
        59           H   tau(  59) = (   0.3626059   0.2503121   0.7300259  )
        60           H   tau(  60) = (   0.2769282   0.3356562   0.8012295  )
        61           H   tau(  61) = (   0.2070921   0.6553010   0.1797473  )
        62           H   tau(  62) = (   0.1319382   0.7419454   0.2449029  )
        63           H   tau(  63) = (   0.2076409   0.6564514   0.3107684  )
        64           H   tau(  64) = (   0.2837312   0.8300318   0.1730203  )
        65           H   tau(  65) = (   0.3656206   0.7405187   0.2438260  )
        66           H   tau(  66) = (   0.2842972   0.8316067   0.3132506  )
        67           H   tau(  67) = (   0.2185717   0.6216523   0.6568869  )
        68           H   tau(  68) = (   0.1393850   0.6712906   0.7495383  )
        69           H   tau(  69) = (   0.2518446   0.6145824   0.7833881  )
        70           H   tau(  70) = (   0.2320088   0.8111178   0.6582166  )
        71           H   tau(  71) = (   0.3527498   0.7517191   0.6989374  )
        72           H   tau(  72) = (   0.2648945   0.8053464   0.7945783  )
        73           H   tau(  73) = (   0.7063736   0.1609952   0.1766840  )
        74           H   tau(  74) = (   0.6318065   0.2477042   0.2426724  )
        75           H   tau(  75) = (   0.7085079   0.1620722   0.3075712  )
        76           H   tau(  76) = (   0.7826897   0.3361796   0.1692536  )
        77           H   tau(  77) = (   0.8654447   0.2459692   0.2380212  )
        78           H   tau(  78) = (   0.7858675   0.3368268   0.3095084  )
        79           H   tau(  79) = (   0.6619211   0.1810744   0.6640220  )
        80           H   tau(  80) = (   0.6630291   0.1822827   0.7946712  )
        81           H   tau(  81) = (   0.7600204   0.1204353   0.7290737  )
        82           H   tau(  82) = (   0.8217005   0.2844867   0.6566679  )
        83           H   tau(  83) = (   0.8232358   0.2858483   0.7968422  )
        84           H   tau(  84) = (   0.7196816   0.3502651   0.7272798  )
        85           H   tau(  85) = (   0.6716596   0.6773162   0.1809204  )
        86           H   tau(  86) = (   0.6737876   0.6774211   0.3115596  )
        87           H   tau(  87) = (   0.7681701   0.6128827   0.2447840  )
        88           H   tau(  88) = (   0.8354961   0.7748285   0.1734519  )
        89           H   tau(  89) = (   0.8371989   0.7757735   0.3135985  )
        90           H   tau(  90) = (   0.7359285   0.8440080   0.2442409  )
        91           H   tau(  91) = (   0.7114163   0.6534104   0.6646221  )
        92           H   tau(  92) = (   0.6312653   0.7336786   0.7312957  )
        93           H   tau(  93) = (   0.7153552   0.6552733   0.7953107  )
        94           H   tau(  94) = (   0.7730506   0.8340905   0.6548923  )
        95           H   tau(  95) = (   0.8639978   0.7520267   0.7234349  )
        96           H   tau(  96) = (   0.7777183   0.8365160   0.7950307  )

     number of k points=    32
                       cart. coord. in units 2pi/alat
        k(    1) = (   0.1246348   0.1268700   0.1289224), wk =   0.0625000
        k(    2) = (   0.1246348   0.1268700   0.3867672), wk =   0.0625000
        k(    3) = (   0.1246348   0.3806100   0.1289224), wk =   0.0625000
        k(    4) = (   0.1246348   0.3806100   0.3867672), wk =   0.0625000
        k(    5) = (   0.3739045   0.1268700   0.1289224), wk =   0.0625000
        k(    6) = (   0.3739045   0.1268700   0.3867672), wk =   0.0625000
        k(    7) = (   0.3739045   0.3806100   0.1289224), wk =   0.0625000
        k(    8) = (   0.3739045   0.3806100   0.3867672), wk =   0.0625000
        k(    9) = (  -0.1246348  -0.1268700   0.1289224), wk =   0.0625000
        k(   10) = (  -0.1246348   0.1268700  -0.1289224), wk =   0.0625000
        k(   11) = (   0.1246348  -0.1268700  -0.1289224), wk =   0.0625000
        k(   12) = (  -0.1246348  -0.1268700   0.3867672), wk =   0.0625000
        k(   13) = (  -0.1246348   0.1268700  -0.3867672), wk =   0.0625000
        k(   14) = (   0.1246348  -0.1268700  -0.3867672), wk =   0.0625000
        k(   15) = (  -0.1246348  -0.3806100   0.1289224), wk =   0.0625000
        k(   16) = (  -0.1246348   0.3806100  -0.1289224), wk =   0.0625000
        k(   17) = (   0.1246348  -0.3806100  -0.1289224), wk =   0.0625000
        k(   18) = (  -0.1246348  -0.3806100   0.3867672), wk =   0.0625000
        k(   19) = (  -0.1246348   0.3806100  -0.3867672), wk =   0.0625000
        k(   20) = (   0.1246348  -0.3806100  -0.3867672), wk =   0.0625000
        k(   21) = (  -0.3739045  -0.1268700   0.1289224), wk =   0.0625000
        k(   22) = (  -0.3739045   0.1268700  -0.1289224), wk =   0.0625000
        k(   23) = (   0.3739045  -0.1268700  -0.1289224), wk =   0.0625000
        k(   24) = (  -0.3739045  -0.1268700   0.3867672), wk =   0.0625000
        k(   25) = (  -0.3739045   0.1268700  -0.3867672), wk =   0.0625000
        k(   26) = (   0.3739045  -0.1268700  -0.3867672), wk =   0.0625000
        k(   27) = (  -0.3739045  -0.3806100   0.1289224), wk =   0.0625000
        k(   28) = (  -0.3739045   0.3806100  -0.1289224), wk =   0.0625000
        k(   29) = (   0.3739045  -0.3806100  -0.1289224), wk =   0.0625000
        k(   30) = (  -0.3739045  -0.3806100   0.3867672), wk =   0.0625000
        k(   31) = (  -0.3739045   0.3806100  -0.3867672), wk =   0.0625000
        k(   32) = (   0.3739045  -0.3806100  -0.3867672), wk =   0.0625000

     Dense  grid:  2397263 G-vectors     FFT dimensions: ( 180, 180, 180)

     Estimated max dynamical RAM per process >       3.09 GB

     Estimated total dynamical RAM >      99.04 GB

     Initial potential from superposition of free atoms

     starting charge  399.97850, renormalised to  400.00000
     Starting wfcs are  280 randomized atomic wfcs
     Checking if some PAW data can be deallocated... 

     total cpu time spent up to now is      810.2 secs

     Self-consistent Calculation

     iteration #  1     ecut=   120.00 Ry     beta= 0.70
     Davidson diagonalization with overlap
     ethr =  1.00E-02,  avg # of iterations =  2.0

     total cpu time spent up to now is     2255.7 secs

     total energy              =  -16489.36589786 Ry
     Harris-Foulkes estimate   =  -16492.77247416 Ry
     estimated scf accuracy    <       5.71251550 Ry

     iteration #  2     ecut=   120.00 Ry     beta= 0.70
     Davidson diagonalization with overlap
     ethr =  1.43E-03,  avg # of iterations =  3.0

     total cpu time spent up to now is     4288.5 secs

     total energy              =  -16490.60734307 Ry
     Harris-Foulkes estimate   =  -16491.84664346 Ry
     estimated scf accuracy    <       2.20338553 Ry

     iteration #  3     ecut=   120.00 Ry     beta= 0.70
     Davidson diagonalization with overlap
     ethr =  5.51E-04,  avg # of iterations =  3.0

     total cpu time spent up to now is     5920.2 secs

     total energy              =  -16491.12805654 Ry
     Harris-Foulkes estimate   =  -16491.17167081 Ry
     estimated scf accuracy    <       0.10085909 Ry

     iteration #  4     ecut=   120.00 Ry     beta= 0.70
     Davidson diagonalization with overlap
     ethr =  2.52E-05,  avg # of iterations =  3.0

     total cpu time spent up to now is     7794.5 secs

     total energy              =  -16491.15267461 Ry
     Harris-Foulkes estimate   =  -16491.16284219 Ry
     estimated scf accuracy    <       0.01863888 Ry

     iteration #  5     ecut=   120.00 Ry     beta= 0.70
     Davidson diagonalization with overlap
     ethr =  4.66E-06,  avg # of iterations =  2.2

     total cpu time spent up to now is     9542.3 secs

     total energy              =  -16491.15652542 Ry
     Harris-Foulkes estimate   =  -16491.15731119 Ry
     estimated scf accuracy    <       0.00140687 Ry

     iteration #  6     ecut=   120.00 Ry     beta= 0.70
     Davidson diagonalization with overlap
     ethr =  3.52E-07,  avg # of iterations =  3.0

     total cpu time spent up to now is    11614.2 secs

     total energy              =  -16491.15691016 Ry
     Harris-Foulkes estimate   =  -16491.15735930 Ry
     estimated scf accuracy    <       0.00105392 Ry

     iteration #  7     ecut=   120.00 Ry     beta= 0.70
     Davidson diagonalization with overlap
     ethr =  2.63E-07,  avg # of iterations =  2.3

     total cpu time spent up to now is    13170.5 secs

     total energy              =  -16491.15712791 Ry
     Harris-Foulkes estimate   =  -16491.15714361 Ry
     estimated scf accuracy    <       0.00004245 Ry

     iteration #  8     ecut=   120.00 Ry     beta= 0.70
     Davidson diagonalization with overlap
     ethr =  1.06E-08,  avg # of iterations =  3.0

     total cpu time spent up to now is    15252.2 secs

     total energy              =  -16491.15714191 Ry
     Harris-Foulkes estimate   =  -16491.15714535 Ry
     estimated scf accuracy    <       0.00000802 Ry

     iteration #  9     ecut=   120.00 Ry     beta= 0.70
     Davidson diagonalization with overlap
     ethr =  2.00E-09,  avg # of iterations =  3.0

     total cpu time spent up to now is    17113.5 secs

     total energy              =  -16491.15714370 Ry
     Harris-Foulkes estimate   =  -16491.15714423 Ry
     estimated scf accuracy    <       0.00000109 Ry

     iteration # 10     ecut=   120.00 Ry     beta= 0.70
     Davidson diagonalization with overlap
     ethr =  2.72E-10,  avg # of iterations =  3.7

     total cpu time spent up to now is    19211.8 secs

     total energy              =  -16491.15714399 Ry
     Harris-Foulkes estimate   =  -16491.15714410 Ry
     estimated scf accuracy    <       0.00000024 Ry

     iteration # 11     ecut=   120.00 Ry     beta= 0.70
     Davidson diagonalization with overlap
     ethr =  6.01E-11,  avg # of iterations =  3.1

     total cpu time spent up to now is    21108.2 secs

     End of self-consistent calculation

          k = 0.1246 0.1269 0.1289 (299630 PWs)   bands (ev):

   -17.5047 -17.4852 -17.4453 -17.4254 -17.4249 -17.4224 -17.4183 -17.4143
   -14.2933 -14.2872 -14.2847 -14.2807 -14.2760 -14.2748 -14.2742 -14.2718
   -14.2687 -14.2673 -14.2668 -14.2619 -14.2602 -14.2585 -14.2540 -14.2536
   -14.2504 -14.2453 -14.2448 -14.2443 -14.2435 -14.2432 -14.2428 -14.2423
   -14.2394 -14.2358 -14.2347 -14.2340 -14.2337 -14.2328 -14.2308 -14.2305
   -14.2294 -14.2285 -14.2258 -14.2240 -14.2207 -14.2188 -14.2157 -14.2079
   -10.4883 -10.4660 -10.4563 -10.4489 -10.4439 -10.4325 -10.4183 -10.4118
    -9.6853  -9.5199  -9.5187  -9.5013  -9.3568  -9.3443  -9.3335  -9.2974
    -9.2817  -9.2673  -9.2458  -9.2368  -9.2288  -9.1924  -9.1817  -9.1760
    -9.1622  -9.1510  -9.1151  -9.0834  -9.0298  -9.0083  -8.9959  -8.9750
    -6.9650  -6.9490  -6.9450  -6.9381  -6.9348  -6.9167  -6.9104  -6.9047
    -6.8994  -6.8653  -6.8175  -6.8060  -6.7994  -6.7898  -6.7754  -6.7715
    -5.8923  -5.4785  -5.4463  -5.4384  -5.0535  -5.0423  -5.0018  -4.8442
    -4.8267  -4.8192  -4.8024  -4.7960  -4.7917  -4.7708  -4.7637  -4.5750
    -2.7961  -2.7793  -2.7659  -2.7606  -2.7551  -2.7521  -2.7395  -2.7364
    -2.7315  -2.7194  -2.7130  -2.7030  -2.7019  -2.6960  -2.6916  -2.6851
    -0.8759  -0.8299  -0.8130  -0.7917  -0.7648  -0.7438  -0.7351  -0.7152
    -0.6544  -0.6013  -0.5934  -0.5518   0.2234   0.2934   0.2991   0.3074
     0.4014   0.4244   0.4327   0.4672   0.4898   0.5449   0.5718   0.5790
     0.6053   0.7271   0.7523   0.7778   0.7972   0.8158   0.8765   0.9120
     0.9213   0.9415   0.9517   0.9609   0.9812   1.0024   1.0233   1.0252
     1.0457   1.0796   1.0981   1.1202   1.1356   1.1466   1.1761   1.1823
     1.2146   1.2206   1.2297   1.2436   1.2503   1.2697   1.2846   1.3110
     1.3220   1.3528   1.3722   1.4176   1.4650   1.4724   1.4902   1.5652
     1.5941   1.6205   1.6721   1.6797   1.7150   1.7768   1.8640   2.0467

          k = 0.1246 0.1269 0.3868 (299684 PWs)   bands (ev):

   -17.5047 -17.4852 -17.4453 -17.4254 -17.4249 -17.4223 -17.4183 -17.4143
   -14.2925 -14.2859 -14.2842 -14.2797 -14.2766 -14.2764 -14.2741 -14.2699
   -14.2697 -14.2680 -14.2660 -14.2625 -14.2609 -14.2582 -14.2540 -14.2536
   -14.2514 -14.2454 -14.2453 -14.2445 -14.2435 -14.2432 -14.2428 -14.2423
   -14.2394 -14.2358 -14.2346 -14.2340 -14.2337 -14.2328 -14.2308 -14.2305
   -14.2294 -14.2285 -14.2258 -14.2240 -14.2207 -14.2188 -14.2157 -14.2079
   -10.4876 -10.4656 -10.4543 -10.4500 -10.4448 -10.4328 -10.4186 -10.4121
    -9.6498  -9.5848  -9.4854  -9.4723  -9.4229  -9.4119  -9.3259  -9.3019
    -9.2810  -9.2534  -9.2183  -9.2074  -9.2039  -9.1903  -9.1774  -9.1686
    -9.1437  -9.1201  -9.1093  -9.0906  -9.0581  -9.0366  -8.9969  -8.9788
    -6.9701  -6.9490  -6.9398  -6.9367  -6.9340  -6.9171  -6.9092  -6.9067
    -6.8981  -6.8711  -6.8114  -6.7999  -6.7923  -6.7912  -6.7822  -6.7774
    -5.7719  -5.5876  -5.3633  -5.3249  -5.1838  -5.1452  -4.9613  -4.8626
    -4.8329  -4.8225  -4.7992  -4.7948  -4.7870  -4.7744  -4.7569  -4.6911
    -2.7947  -2.7701  -2.7645  -2.7622  -2.7516  -2.7465  -2.7413  -2.7398
    -2.7313  -2.7189  -2.7145  -2.7105  -2.7006  -2.6965  -2.6936  -2.6854
    -0.8001  -0.7835  -0.7522  -0.7141  -0.7090  -0.6992  -0.6473  -0.6383
    -0.4759  -0.4014  -0.3668  -0.2663   0.0494   0.1224   0.1448   0.2323
     0.3395   0.3534   0.3852   0.4098   0.4359   0.4540   0.4652   0.4919
     0.5043   0.5426   0.7500   0.7664   0.7840   0.8145   0.8707   0.8970
     0.9083   0.9239   0.9449   0.9698   0.9867   1.0125   1.0315   1.0464
     1.0644   1.0726   1.0854   1.0999   1.1180   1.1365   1.1431   1.1718
     1.2002   1.2089   1.2307   1.2351   1.2556   1.2707   1.2817   1.3102
     1.3506   1.3631   1.3820   1.4139   1.4341   1.4641   1.4681   1.5514
     1.5904   1.6186   1.6374   1.6704   1.6764   1.6878   1.7524   1.8511

          k = 0.1246 0.3806 0.1289 (299635 PWs)   bands (ev):

   -17.5047 -17.4852 -17.4453 -17.4254 -17.4249 -17.4224 -17.4183 -17.4143
   -14.2933 -14.2865 -14.2846 -14.2803 -14.2753 -14.2740 -14.2731 -14.2719
   -14.2684 -14.2679 -14.2676 -14.2623 -14.2609 -14.2593 -14.2540 -14.2536
   -14.2505 -14.2453 -14.2453 -14.2445 -14.2435 -14.2432 -14.2428 -14.2423
   -14.2394 -14.2358 -14.2347 -14.2340 -14.2337 -14.2328 -14.2308 -14.2305
   -14.2294 -14.2285 -14.2258 -14.2240 -14.2207 -14.2188 -14.2157 -14.2079
   -10.4871 -10.4644 -10.4539 -10.4494 -10.4440 -10.4337 -10.4200 -10.4139
    -9.6439  -9.5702  -9.4945  -9.4850  -9.4099  -9.4011  -9.3311  -9.2947
    -9.2819  -9.2776  -9.2466  -9.2380  -9.2314  -9.1807  -9.1746  -9.1559
    -9.1298  -9.0972  -9.0864  -9.0712  -9.0426  -9.0277  -9.0149  -9.0009
    -6.9644  -6.9485  -6.9449  -6.9384  -6.9344  -6.9170  -6.9110  -6.9056
    -6.8987  -6.8648  -6.8170  -6.8059  -6.8000  -6.7882  -6.7774  -6.7722
    -5.7717  -5.5826  -5.3664  -5.3326  -5.1899  -5.1442  -4.9485  -4.8678
    -4.8322  -4.8144  -4.8041  -4.7966  -4.7860  -4.7747  -4.7576  -4.6831
    -2.7876  -2.7734  -2.7695  -2.7557  -2.7517  -2.7474  -2.7418  -2.7394
    -2.7331  -2.7233  -2.7155  -2.7128  -2.7020  -2.6939  -2.6920  -2.6852
    -0.8494  -0.8148  -0.7798  -0.7751  -0.7497  -0.7277  -0.6458  -0.5851
    -0.4269  -0.3859  -0.2701  -0.2251   0.0939   0.1446   0.2661   0.2935
     0.3249   0.3462   0.3513   0.3725   0.4514   0.4600   0.4765   0.5503
     0.5577   0.6250   0.6284   0.6435   0.7239   0.8078   0.8197   0.8325
     0.8867   0.9215   0.9287   0.9521   0.9768   0.9827   0.9975   1.0211
     1.0279   1.0496   1.0969   1.1202   1.1410   1.1544   1.1977   1.2069
     1.2197   1.2246   1.2432   1.2593   1.2667   1.2816   1.3118   1.3221
     1.3505   1.3587   1.4086   1.4214   1.4697   1.4790   1.4983   1.5263
     1.5613   1.5710   1.5787   1.5976   1.6219   1.6571   1.8073   1.8571

          k = 0.1246 0.3806 0.3868 (299635 PWs)   bands (ev):

   -17.5047 -17.4852 -17.4453 -17.4254 -17.4249 -17.4224 -17.4183 -17.4143
   -14.2924 -14.2852 -14.2839 -14.2796 -14.2766 -14.2750 -14.2730 -14.2698
   -14.2692 -14.2686 -14.2670 -14.2634 -14.2609 -14.2592 -14.2540 -14.2536
   -14.2515 -14.2460 -14.2453 -14.2445 -14.2435 -14.2432 -14.2428 -14.2423
   -14.2394 -14.2358 -14.2347 -14.2340 -14.2337 -14.2328 -14.2308 -14.2305
   -14.2294 -14.2285 -14.2258 -14.2240 -14.2207 -14.2188 -14.2157 -14.2079
   -10.4866 -10.4634 -10.4531 -10.4502 -10.4441 -10.4340 -10.4205 -10.4144
    -9.6113  -9.5510  -9.5358  -9.4812  -9.4562  -9.3986  -9.3762  -9.3347
    -9.2863  -9.2543  -9.2080  -9.2059  -9.1958  -9.1679  -9.1459  -9.1434
    -9.1187  -9.1116  -9.1067  -9.0690  -9.0625  -9.0407  -9.0240  -9.0031
    -6.9697  -6.9486  -6.9389  -6.9378  -6.9341  -6.9173  -6.9101  -6.9069
    -6.8973  -6.8710  -6.8112  -6.7997  -6.7924  -6.7908  -6.7826  -6.7778
    -5.6544  -5.4742  -5.4654  -5.2870  -5.2542  -5.0899  -5.0802  -4.9425
    -4.8331  -4.8153  -4.8056  -4.7968  -4.7860  -4.7779  -4.7614  -4.7435
    -2.7878  -2.7750  -2.7724  -2.7564  -2.7498  -2.7463  -2.7414  -2.7370
    -2.7308  -2.7249  -2.7145  -2.7099  -2.7006  -2.6957  -2.6917  -2.6847
    -0.7902  -0.7349  -0.7279  -0.6750  -0.5316  -0.4543  -0.4319  -0.3869
    -0.3053  -0.2979  -0.2864  -0.2750   0.0663   0.1066   0.1352   0.1455
     0.2145   0.2563   0.2795   0.3363   0.3794   0.4130   0.4250   0.4359
     0.5174   0.5415   0.6147   0.6310   0.7127   0.7293   0.8012   0.8322
     0.8676   0.8896   0.9031   0.9458   0.9598   0.9722   0.9995   1.0119
     1.0257   1.0367   1.0515   1.0622   1.1091   1.1189   1.1325   1.1556
     1.2044   1.2284   1.2488   1.2527   1.2641   1.2876   1.3090   1.3228
     1.3778   1.3942   1.4037   1.4392   1.4514   1.4754   1.4928   1.4994
     1.5119   1.5403   1.5798   1.5884   1.6178   1.6467   1.6675   1.7012

          k = 0.3739 0.1269 0.1289 (299683 PWs)   bands (ev):

   -17.5047 -17.4852 -17.4453 -17.4254 -17.4249 -17.4224 -17.4182 -17.4143
   -14.2924 -14.2868 -14.2843 -14.2801 -14.2776 -14.2751 -14.2745 -14.2712
   -14.2685 -14.2668 -14.2657 -14.2633 -14.2601 -14.2591 -14.2540 -14.2536
   -14.2510 -14.2453 -14.2449 -14.2444 -14.2435 -14.2432 -14.2428 -14.2423
   -14.2394 -14.2358 -14.2347 -14.2340 -14.2337 -14.2328 -14.2308 -14.2305
   -14.2294 -14.2285 -14.2258 -14.2240 -14.2207 -14.2188 -14.2157 -14.2079
   -10.4881 -10.4653 -10.4565 -10.4482 -10.4442 -10.4319 -10.4192 -10.4127
    -9.6440  -9.5872  -9.4870  -9.4769  -9.4169  -9.4000  -9.3311  -9.2989
    -9.2815  -9.2731  -9.2409  -9.2335  -9.1940  -9.1860  -9.1722  -9.1548
    -9.1258  -9.1152  -9.1055  -9.0884  -9.0522  -9.0244  -9.0147  -8.9844
    -6.9647  -6.9481  -6.9455  -6.9371  -6.9347  -6.9164  -6.9107  -6.9057
    -6.8992  -6.8655  -6.8175  -6.8059  -6.8002  -6.7883  -6.7750  -6.7732
    -5.7807  -5.6087  -5.3429  -5.3366  -5.1783  -5.1686  -4.9215  -4.8636
    -4.8347  -4.8096  -4.8040  -4.7944  -4.7858  -4.7690  -4.7633  -4.6783
    -2.7939  -2.7787  -2.7679  -2.7562  -2.7538  -2.7496  -2.7382  -2.7374
    -2.7316  -2.7200  -2.7084  -2.7050  -2.7027  -2.6990  -2.6964  -2.6864
    -0.8557  -0.8149  -0.7980  -0.7653  -0.7384  -0.7088  -0.6252  -0.5947
    -0.4461  -0.3804  -0.2959  -0.2259   0.0914   0.1606   0.2641   0.2868
     0.3143   0.3283   0.3481   0.3635   0.4286   0.4399   0.4540   0.5198
     0.5481   0.6070   0.6209   0.6640   0.6985   0.7876   0.8193   0.8212
     0.8700   0.8933   0.9327   0.9688   0.9835   1.0195   1.0251   1.0463
     1.0595   1.0720   1.0959   1.1108   1.1272   1.1507   1.1973   1.2187
     1.2288   1.2364   1.2437   1.2528   1.2795   1.2835   1.2999   1.3109
     1.3281   1.3467   1.3909   1.4204   1.4563   1.4726   1.5004   1.5497
     1.5701   1.5868   1.5976   1.6036   1.6346   1.6455   1.8843   1.9057

          k = 0.3739 0.1269 0.3868 (299687 PWs)   bands (ev):

   -17.5047 -17.4852 -17.4453 -17.4254 -17.4250 -17.4224 -17.4182 -17.4143
   -14.2915 -14.2857 -14.2824 -14.2804 -14.2784 -14.2764 -14.2744 -14.2699
   -14.2688 -14.2669 -14.2656 -14.2626 -14.2625 -14.2584 -14.2540 -14.2536
   -14.2521 -14.2454 -14.2453 -14.2445 -14.2435 -14.2432 -14.2428 -14.2423
   -14.2394 -14.2358 -14.2346 -14.2340 -14.2337 -14.2328 -14.2308 -14.2305
   -14.2294 -14.2285 -14.2258 -14.2240 -14.2207 -14.2188 -14.2157 -14.2079
   -10.4873 -10.4651 -10.4546 -10.4493 -10.4450 -10.4321 -10.4195 -10.4130
    -9.6103  -9.5519  -9.5476  -9.4883  -9.4518  -9.3967  -9.3802  -9.3437
    -9.2428  -9.2212  -9.2060  -9.1983  -9.1873  -9.1807  -9.1631  -9.1498
    -9.1345  -9.1269  -9.1109  -9.0787  -9.0656  -9.0354  -9.0223  -8.9953
    -6.9700  -6.9480  -6.9395  -6.9367  -6.9341  -6.9169  -6.9097  -6.9070
    -6.8977  -6.8711  -6.8113  -6.8000  -6.7933  -6.7901  -6.7819  -6.7780
    -5.6632  -5.4921  -5.4822  -5.3111  -5.2267  -5.0782  -5.0522  -4.9336
    -4.8329  -4.8113  -4.8032  -4.7927  -4.7906  -4.7771  -4.7638  -4.7444
    -2.7928  -2.7701  -2.7659  -2.7576  -2.7509  -2.7465  -2.7410  -2.7387
    -2.7320  -2.7203  -2.7115  -2.7077  -2.7044  -2.6969  -2.6962  -2.6882
    -0.7810  -0.7373  -0.7177  -0.6751  -0.5176  -0.4520  -0.4198  -0.3918
    -0.3470  -0.2987  -0.2874  -0.2633   0.0641   0.0695   0.1209   0.1545
     0.2175   0.2325   0.2515   0.3128   0.4050   0.4115   0.4221   0.4317
     0.5236   0.5686   0.6216   0.6577   0.6749   0.7168   0.7327   0.7844
     0.8126   0.8645   0.8733   0.9023   0.9192   0.9703   1.0158   1.0292
     1.0401   1.0572   1.0618   1.0809   1.1203   1.1493   1.1702   1.1774
     1.2212   1.2543   1.2570   1.2688   1.2823   1.3046   1.3130   1.3354
     1.3562   1.3782   1.3937   1.4158   1.4549   1.4714   1.4816   1.5341
     1.5494   1.5594   1.5842   1.5877   1.6291   1.6550   1.7032   1.7308

          k = 0.3739 0.3806 0.1289 (299601 PWs)   bands (ev):

   -17.5047 -17.4852 -17.4453 -17.4254 -17.4249 -17.4224 -17.4182 -17.4143
   -14.2924 -14.2861 -14.2842 -14.2797 -14.2772 -14.2739 -14.2736 -14.2714
   -14.2678 -14.2676 -14.2667 -14.2636 -14.2607 -14.2601 -14.2540 -14.2536
   -14.2512 -14.2453 -14.2453 -14.2445 -14.2434 -14.2432 -14.2428 -14.2423
   -14.2394 -14.2358 -14.2347 -14.2340 -14.2337 -14.2328 -14.2308 -14.2305
   -14.2294 -14.2285 -14.2258 -14.2240 -14.2207 -14.2188 -14.2157 -14.2079
   -10.4873 -10.4655 -10.4525 -10.4489 -10.4445 -10.4341 -10.4198 -10.4135
    -9.6019  -9.5666  -9.5463  -9.4557  -9.4481  -9.3972  -9.3791  -9.3315
    -9.2820  -9.2716  -9.2463  -9.2387  -9.1862  -9.1421  -9.1362  -9.1255
    -9.1122  -9.1053  -9.0952  -9.0809  -9.0528  -9.0420  -9.0366  -9.0082
    -6.9642  -6.9481  -6.9459  -6.9371  -6.9344  -6.9165  -6.9121  -6.9056
    -6.8976  -6.8650  -6.8169  -6.8059  -6.7994  -6.7890  -6.7762  -6.7739
    -5.6635  -5.5013  -5.4717  -5.3156  -5.2381  -5.0673  -5.0386  -4.9447
    -4.8354  -4.8149  -4.8032  -4.7949  -4.7900  -4.7719  -4.7613  -4.7360
    -2.7863  -2.7724  -2.7690  -2.7551  -2.7490  -2.7461  -2.7407  -2.7384
    -2.7328  -2.7239  -2.7154  -2.7131  -2.7032  -2.6975  -2.6948  -2.6852
    -0.8240  -0.7880  -0.7513  -0.7042  -0.4949  -0.4690  -0.4461  -0.3411
    -0.3208  -0.2977  -0.2687  -0.2281   0.0671   0.1338   0.1493   0.2210
     0.2873   0.2937   0.3227   0.3340   0.3513   0.3718   0.3885   0.4443
     0.5448   0.5725   0.5941   0.6051   0.7109   0.7223   0.7364   0.7639
     0.7830   0.8084   0.8639   0.8836   0.9051   0.9267   0.9609   0.9694
     1.0175   1.0568   1.0812   1.1131   1.1467   1.1787   1.1885   1.1958
     1.2184   1.2305   1.2465   1.2668   1.2765   1.2996   1.3187   1.3558
     1.3958   1.4165   1.4285   1.4325   1.4605   1.4724   1.4870   1.4948
     1.5300   1.5387   1.5523   1.5598   1.5746   1.6557   1.6750   1.6973

          k = 0.3739 0.3806 0.3868 (299656 PWs)   bands (ev):

   -17.5047 -17.4852 -17.4453 -17.4254 -17.4249 -17.4224 -17.4182 -17.4143
   -14.2914 -14.2849 -14.2824 -14.2803 -14.2783 -14.2750 -14.2734 -14.2692
   -14.2688 -14.2675 -14.2665 -14.2634 -14.2627 -14.2594 -14.2540 -14.2536
   -14.2521 -14.2460 -14.2453 -14.2445 -14.2435 -14.2432 -14.2428 -14.2423
   -14.2394 -14.2358 -14.2347 -14.2340 -14.2337 -14.2328 -14.2308 -14.2305
   -14.2294 -14.2285 -14.2258 -14.2240 -14.2207 -14.2188 -14.2157 -14.2079
   -10.4868 -10.4646 -10.4517 -10.4496 -10.4446 -10.4345 -10.4203 -10.4140
    -9.5713  -9.5323  -9.5171  -9.5103  -9.4672  -9.4514  -9.4249  -9.3847
    -9.2441  -9.2150  -9.1945  -9.1864  -9.1787  -9.1529  -9.1418  -9.1369
    -9.1209  -9.1120  -9.0926  -9.0779  -9.0603  -9.0539  -9.0465  -9.0152
    -6.9696  -6.9483  -6.9393  -6.9366  -6.9337  -6.9173  -6.9104  -6.9068
    -6.8965  -6.8711  -6.8112  -6.7999  -6.7927  -6.7907  -6.7822  -6.7784
    -5.5504  -5.3869  -5.3752  -5.3572  -5.2131  -5.2077  -5.1786  -5.0543
    -4.8345  -4.8160  -4.8037  -4.7943  -4.7907  -4.7806  -4.7636  -4.7552
    -2.7869  -2.7744  -2.7724  -2.7529  -2.7486  -2.7458  -2.7412  -2.7382
    -2.7303  -2.7246  -2.7130  -2.7104  -2.7027  -2.6955  -2.6941  -2.6860
    -0.5422  -0.5208  -0.4899  -0.4431  -0.4269  -0.3699  -0.3605  -0.3394
    -0.3303  -0.3034  -0.2964  -0.2089   0.0652   0.0826   0.1103   0.1299
     0.1850   0.2113   0.2248   0.2313   0.2813   0.2905   0.3020   0.3623
     0.5918   0.6049   0.6207   0.6433   0.6772   0.7034   0.7307   0.7547
     0.7687   0.7948   0.8391   0.8596   0.8735   0.9014   0.9079   0.9244
     0.9505   0.9770   0.9932   1.0099   1.0408   1.0528   1.0800   1.0911
     1.2391   1.2659   1.2782   1.2851   1.3028   1.3177   1.3299   1.3596
     1.4030   1.4071   1.4281   1.4405   1.4507   1.4706   1.4804   1.4974
     1.5103   1.5377   1.5531   1.5615   1.5688   1.5854   1.5937   1.6008

          k =-0.1246-0.1269 0.1289 (299630 PWs)   bands (ev):

   -17.5047 -17.4852 -17.4453 -17.4254 -17.4249 -17.4224 -17.4183 -17.4143
   -14.2933 -14.2872 -14.2847 -14.2807 -14.2760 -14.2748 -14.2742 -14.2718
   -14.2687 -14.2673 -14.2668 -14.2619 -14.2602 -14.2585 -14.2540 -14.2536
   -14.2504 -14.2453 -14.2448 -14.2443 -14.2435 -14.2432 -14.2428 -14.2423
   -14.2394 -14.2358 -14.2347 -14.2340 -14.2337 -14.2328 -14.2308 -14.2305
   -14.2294 -14.2285 -14.2258 -14.2240 -14.2207 -14.2188 -14.2157 -14.2079
   -10.4883 -10.4660 -10.4562 -10.4489 -10.4439 -10.4325 -10.4183 -10.4118
    -9.6850  -9.5214  -9.5172  -9.5020  -9.3566  -9.3434  -9.3339  -9.2983
    -9.2792  -9.2685  -9.2448  -9.2374  -9.2300  -9.1933  -9.1806  -9.1761
    -9.1622  -9.1512  -9.1143  -9.0837  -9.0301  -9.0083  -8.9958  -8.9750
    -6.9650  -6.9490  -6.9451  -6.9381  -6.9349  -6.9167  -6.9105  -6.9047
    -6.8991  -6.8654  -6.8175  -6.8060  -6.7994  -6.7898  -6.7754  -6.7715
    -5.8922  -5.4786  -5.4462  -5.4385  -5.0535  -5.0423  -5.0018  -4.8442
    -4.8269  -4.8192  -4.8024  -4.7960  -4.7918  -4.7709  -4.7637  -4.5747
    -2.7961  -2.7790  -2.7659  -2.7605  -2.7548  -2.7520  -2.7398  -2.7362
    -2.7311  -2.7193  -2.7129  -2.7044  -2.7013  -2.6962  -2.6910  -2.6857
    -0.8764  -0.8290  -0.8139  -0.7960  -0.7631  -0.7465  -0.7296  -0.7145
    -0.6540  -0.6017  -0.5933  -0.5516   0.2239   0.2942   0.2987   0.3065
     0.3997   0.4231   0.4356   0.4667   0.4895   0.5449   0.5714   0.5811
     0.6053   0.7247   0.7512   0.7841   0.7957   0.8131   0.8792   0.9130
     0.9180   0.9411   0.9512   0.9717   0.9809   0.9933   1.0189   1.0271
     1.0434   1.0833   1.0998   1.1211   1.1336   1.1444   1.1731   1.1869
     1.2095   1.2210   1.2346   1.2449   1.2517   1.2718   1.2838   1.3056
     1.3223   1.3542   1.3711   1.4190   1.4637   1.4748   1.4895   1.5643
     1.5934   1.6208   1.6726   1.6792   1.7156   1.7761   1.8639   2.0474

          k =-0.1246 0.1269-0.1289 (299630 PWs)   bands (ev):

   -17.5047 -17.4852 -17.4453 -17.4254 -17.4249 -17.4224 -17.4183 -17.4143
   -14.2933 -14.2872 -14.2847 -14.2807 -14.2760 -14.2748 -14.2742 -14.2718
   -14.2687 -14.2673 -14.2668 -14.2619 -14.2602 -14.2585 -14.2540 -14.2536
   -14.2504 -14.2453 -14.2448 -14.2443 -14.2435 -14.2432 -14.2428 -14.2423
   -14.2394 -14.2358 -14.2347 -14.2340 -14.2337 -14.2328 -14.2308 -14.2305
   -14.2294 -14.2285 -14.2258 -14.2240 -14.2207 -14.2188 -14.2157 -14.2079
   -10.4885 -10.4669 -10.4556 -10.4490 -10.4439 -10.4329 -10.4178 -10.4112
    -9.6899  -9.5185  -9.5112  -9.4947  -9.3671  -9.3533  -9.3356  -9.2928
    -9.2765  -9.2705  -9.2515  -9.2308  -9.2290  -9.1937  -9.1811  -9.1766
    -9.1593  -9.1476  -9.1137  -9.0850  -9.0319  -9.0098  -8.9946  -8.9739
    -6.9649  -6.9489  -6.9446  -6.9383  -6.9348  -6.9164  -6.9108  -6.9053
    -6.8993  -6.8654  -6.8175  -6.8060  -6.8001  -6.7886  -6.7760  -6.7714
    -5.8924  -5.4780  -5.4444  -5.4385  -5.0531  -5.0462  -5.0077  -4.8432
    -4.8260  -4.8178  -4.8011  -4.7948  -4.7911  -4.7688  -4.7622  -4.5772
    -2.7964  -2.7797  -2.7636  -2.7622  -2.7548  -2.7532  -2.7384  -2.7357
    -2.7309  -2.7207  -2.7139  -2.7052  -2.7014  -2.6958  -2.6901  -2.6847
    -0.8936  -0.8649  -0.8006  -0.7765  -0.7650  -0.7386  -0.7261  -0.7057
    -0.6561  -0.6020  -0.5910  -0.5335   0.2219   0.2863   0.3113   0.3150
     0.3803   0.4084   0.4404   0.4541   0.4769   0.5142   0.5796   0.5885
     0.6385   0.7304   0.7469   0.7713   0.7804   0.8220   0.8691   0.8795
     0.9113   0.9369   0.9556   0.9736   1.0103   1.0248   1.0334   1.0564
     1.0673   1.0828   1.0975   1.1179   1.1282   1.1461   1.1551   1.1806
     1.2024   1.2168   1.2214   1.2330   1.2447   1.2771   1.2861   1.3077
     1.3386   1.3537   1.3670   1.4028   1.4611   1.4789   1.4999   1.5671
     1.5925   1.6193   1.6373   1.6692   1.7684   1.7761   1.8571   2.0713

          k = 0.1246-0.1269-0.1289 (299630 PWs)   bands (ev):

   -17.5047 -17.4852 -17.4453 -17.4254 -17.4249 -17.4224 -17.4183 -17.4143
   -14.2933 -14.2872 -14.2847 -14.2807 -14.2760 -14.2748 -14.2742 -14.2718
   -14.2687 -14.2673 -14.2668 -14.2619 -14.2602 -14.2585 -14.2540 -14.2536
   -14.2504 -14.2453 -14.2448 -14.2443 -14.2435 -14.2432 -14.2428 -14.2423
   -14.2394 -14.2358 -14.2347 -14.2340 -14.2337 -14.2328 -14.2308 -14.2305
   -14.2294 -14.2285 -14.2258 -14.2240 -14.2207 -14.2188 -14.2157 -14.2079
   -10.4885 -10.4669 -10.4556 -10.4489 -10.4439 -10.4329 -10.4178 -10.4112
    -9.6899  -9.5189  -9.5112  -9.4939  -9.3682  -9.3527  -9.3361  -9.2913
    -9.2754  -9.2712  -9.2519  -9.2360  -9.2256  -9.1933  -9.1817  -9.1753
    -9.1587  -9.1470  -9.1153  -9.0843  -9.0322  -9.0095  -8.9947  -8.9739
    -6.9650  -6.9486  -6.9448  -6.9384  -6.9347  -6.9164  -6.9105  -6.9053
    -6.8997  -6.8653  -6.8175  -6.8060  -6.8000  -6.7887  -6.7759  -6.7713
    -5.8925  -5.4779  -5.4443  -5.4384  -5.0534  -5.0461  -5.0078  -4.8432
    -4.8259  -4.8177  -4.8013  -4.7946  -4.7912  -4.7687  -4.7622  -4.5773
    -2.7963  -2.7799  -2.7639  -2.7618  -2.7552  -2.7532  -2.7390  -2.7354
    -2.7311  -2.7201  -2.7140  -2.7036  -2.7016  -2.6955  -2.6909  -2.6851
    -0.8948  -0.8654  -0.8006  -0.7754  -0.7615  -0.7414  -0.7268  -0.7042
    -0.6562  -0.6019  -0.5912  -0.5342   0.2224   0.2862   0.3118   0.3151
     0.3814   0.4047   0.4432   0.4555   0.4747   0.5131   0.5812   0.5866
     0.6371   0.7291   0.7505   0.7719   0.7841   0.8226   0.8686   0.8792
     0.9081   0.9348   0.9581   0.9712   1.0106   1.0204   1.0342   1.0601
     1.0664   1.0828   1.0983   1.1109   1.1333   1.1499   1.1582   1.1791
     1.2020   1.2116   1.2207   1.2373   1.2466   1.2744   1.2890   1.3017
     1.3454   1.3520   1.3672   1.4011   1.4619   1.4788   1.4989   1.5667
     1.5926   1.6205   1.6364   1.6686   1.7695   1.7749   1.8574   2.0716

          k =-0.1246-0.1269 0.3868 (299684 PWs)   bands (ev):

   -17.5047 -17.4852 -17.4453 -17.4254 -17.4249 -17.4223 -17.4183 -17.4143
   -14.2925 -14.2859 -14.2842 -14.2797 -14.2766 -14.2764 -14.2741 -14.2699
   -14.2697 -14.2680 -14.2660 -14.2625 -14.2609 -14.2582 -14.2540 -14.2536
   -14.2514 -14.2454 -14.2453 -14.2445 -14.2435 -14.2432 -14.2428 -14.2423
   -14.2394 -14.2358 -14.2346 -14.2340 -14.2337 -14.2328 -14.2308 -14.2305
   -14.2294 -14.2285 -14.2258 -14.2240 -14.2207 -14.2188 -14.2157 -14.2079
   -10.4876 -10.4656 -10.4543 -10.4501 -10.4449 -10.4328 -10.4186 -10.4121
    -9.6493  -9.5855  -9.4852  -9.4736  -9.4213  -9.4119  -9.3268  -9.3006
    -9.2815  -9.2532  -9.2178  -9.2072  -9.2052  -9.1905  -9.1781  -9.1652
    -9.1478  -9.1187  -9.1077  -9.0908  -9.0589  -9.0368  -8.9967  -8.9788
    -6.9701  -6.9490  -6.9399  -6.9364  -6.9343  -6.9172  -6.9095  -6.9066
    -6.8976  -6.8712  -6.8113  -6.7999  -6.7919  -6.7915  -6.7823  -6.7774
    -5.7718  -5.5876  -5.3633  -5.3250  -5.1838  -5.1452  -4.9611  -4.8630
    -4.8332  -4.8225  -4.7993  -4.7947  -4.7869  -4.7746  -4.7569  -4.6906
    -2.7947  -2.7697  -2.7646  -2.7621  -2.7511  -2.7474  -2.7409  -2.7396
    -2.7299  -2.7200  -2.7147  -2.7112  -2.7002  -2.6967  -2.6932  -2.6861
    -0.8010  -0.7812  -0.7538  -0.7171  -0.7140  -0.6917  -0.6478  -0.6387
    -0.4747  -0.3996  -0.3667  -0.2664   0.0483   0.1216   0.1447   0.2346
     0.3366   0.3542   0.3875   0.4098   0.4351   0.4505   0.4685   0.4931
     0.5019   0.5428   0.7503   0.7670   0.7842   0.8114   0.8703   0.8984
     0.9077   0.9284   0.9444   0.9707   0.9826   1.0129   1.0320   1.0446
     1.0615   1.0756   1.0884   1.0976   1.1165   1.1398   1.1450   1.1712
     1.2012   1.2099   1.2289   1.2345   1.2575   1.2707   1.2733   1.3119
     1.3493   1.3676   1.3820   1.4159   1.4364   1.4626   1.4666   1.5502
     1.5895   1.6175   1.6369   1.6724   1.6790   1.6851   1.7512   1.8524

          k =-0.1246 0.1269-0.3868 (299684 PWs)   bands (ev):

   -17.5047 -17.4852 -17.4453 -17.4254 -17.4249 -17.4223 -17.4183 -17.4143
   -14.2925 -14.2859 -14.2842 -14.2797 -14.2766 -14.2764 -14.2741 -14.2699
   -14.2697 -14.2680 -14.2660 -14.2625 -14.2609 -14.2582 -14.2540 -14.2536
   -14.2514 -14.2454 -14.2453 -14.2445 -14.2435 -14.2432 -14.2428 -14.2423
   -14.2394 -14.2358 -14.2346 -14.2340 -14.2337 -14.2328 -14.2308 -14.2305
   -14.2294 -14.2285 -14.2258 -14.2240 -14.2207 -14.2188 -14.2157 -14.2079
   -10.4878 -10.4664 -10.4536 -10.4501 -10.4450 -10.4334 -10.4181 -10.4114
    -9.6533  -9.5874  -9.4776  -9.4668  -9.4171  -9.4090  -9.3434  -9.3088
    -9.2816  -9.2525  -9.2148  -9.2067  -9.2023  -9.1934  -9.1795  -9.1622
    -9.1411  -9.1205  -9.1089  -9.0913  -9.0598  -9.0383  -8.9952  -8.9778
    -6.9701  -6.9487  -6.9396  -6.9368  -6.9346  -6.9168  -6.9100  -6.9069
    -6.8976  -6.8712  -6.8113  -6.7998  -6.7928  -6.7903  -6.7824  -6.7775
    -5.7710  -5.5858  -5.3637  -5.3267  -5.1856  -5.1485  -4.9585  -4.8576
    -4.8341  -4.8248  -4.7986  -4.7949  -4.7868  -4.7735  -4.7559  -4.6929
    -2.7949  -2.7705  -2.7640  -2.7613  -2.7518  -2.7461  -2.7407  -2.7401
    -2.7293  -2.7213  -2.7165  -2.7114  -2.7008  -2.6961  -2.6926  -2.6849
    -0.8482  -0.7909  -0.7398  -0.7071  -0.6883  -0.6802  -0.6434  -0.6279
    -0.4850  -0.3944  -0.3616  -0.2710   0.0424   0.1214   0.1461   0.2326
     0.3265   0.3527   0.3926   0.4112   0.4211   0.4549   0.4690   0.4745
     0.5002   0.5675   0.7603   0.7701   0.7846   0.8142   0.8201   0.8456
     0.9235   0.9424   0.9624   0.9816   0.9942   1.0237   1.0328   1.0572
     1.0606   1.0661   1.0799   1.0929   1.1087   1.1420   1.1599   1.1722
     1.1875   1.2089   1.2207   1.2391   1.2537   1.2616   1.2865   1.3437
     1.3626   1.3696   1.3832   1.4117   1.4302   1.4611   1.4710   1.5508
     1.5834   1.6135   1.6258   1.6430   1.6575   1.6763   1.8005   1.8840

          k = 0.1246-0.1269-0.3868 (299684 PWs)   bands (ev):

   -17.5047 -17.4852 -17.4453 -17.4254 -17.4249 -17.4223 -17.4183 -17.4143
   -14.2925 -14.2859 -14.2842 -14.2797 -14.2766 -14.2764 -14.2741 -14.2699
   -14.2697 -14.2680 -14.2660 -14.2625 -14.2609 -14.2582 -14.2540 -14.2536
   -14.2514 -14.2454 -14.2453 -14.2445 -14.2435 -14.2432 -14.2428 -14.2423
   -14.2394 -14.2358 -14.2346 -14.2340 -14.2337 -14.2328 -14.2308 -14.2305
   -14.2294 -14.2285 -14.2258 -14.2240 -14.2207 -14.2188 -14.2157 -14.2079
   -10.4878 -10.4664 -10.4537 -10.4501 -10.4449 -10.4334 -10.4181 -10.4114
    -9.6534  -9.5873  -9.4781  -9.4658  -9.4169  -9.4097  -9.3440  -9.3083
    -9.2811  -9.2530  -9.2149  -9.2084  -9.2007  -9.1942  -9.1790  -9.1607
    -9.1423  -9.1209  -9.1077  -9.0919  -9.0605  -9.0377  -8.9954  -8.9777
    -6.9701  -6.9486  -6.9395  -6.9371  -6.9343  -6.9168  -6.9098  -6.9068
    -6.8981  -6.8710  -6.8113  -6.7999  -6.7925  -6.7907  -6.7824  -6.7773
    -5.7712  -5.5856  -5.3635  -5.3265  -5.1858  -5.1488  -4.9589  -4.8572
    -4.8339  -4.8248  -4.7987  -4.7948  -4.7870  -4.7733  -4.7558  -4.6932
    -2.7948  -2.7708  -2.7643  -2.7608  -2.7518  -2.7460  -2.7419  -2.7405
    -2.7298  -2.7193  -2.7168  -2.7110  -2.7000  -2.6959  -2.6936  -2.6853
    -0.8494  -0.7896  -0.7412  -0.7047  -0.6893  -0.6790  -0.6459  -0.6275
    -0.4834  -0.3954  -0.3608  -0.2719   0.0427   0.1228   0.1444   0.2330
     0.3273   0.3548   0.3894   0.4122   0.4197   0.4526   0.4704   0.4730
     0.5026   0.5681   0.7634   0.7699   0.7795   0.8160   0.8182   0.8461
     0.9232   0.9451   0.9596   0.9849   0.9954   1.0195   1.0344   1.0563
     1.0620   1.0685   1.0796   1.0918   1.1054   1.1402   1.1645   1.1733
     1.1853   1.2103   1.2212   1.2398   1.2509   1.2673   1.2810   1.3463
     1.3592   1.3736   1.3800   1.4114   1.4294   1.4623   1.4721   1.5491
     1.5843   1.6164   1.6217   1.6424   1.6552   1.6801   1.8004   1.8843

          k =-0.1246-0.3806 0.1289 (299635 PWs)   bands (ev):

   -17.5047 -17.4852 -17.4453 -17.4254 -17.4249 -17.4224 -17.4183 -17.4143
   -14.2933 -14.2865 -14.2846 -14.2803 -14.2753 -14.2740 -14.2731 -14.2719
   -14.2684 -14.2679 -14.2676 -14.2623 -14.2609 -14.2593 -14.2540 -14.2536
   -14.2505 -14.2453 -14.2453 -14.2445 -14.2435 -14.2432 -14.2428 -14.2423
   -14.2394 -14.2358 -14.2347 -14.2340 -14.2337 -14.2328 -14.2308 -14.2305
   -14.2294 -14.2285 -14.2258 -14.2240 -14.2207 -14.2188 -14.2157 -14.2079
   -10.4871 -10.4644 -10.4539 -10.4495 -10.4441 -10.4337 -10.4200 -10.4139
    -9.6436  -9.5704  -9.4949  -9.4852  -9.4103  -9.4008  -9.3302  -9.2962
    -9.2829  -9.2732  -9.2469  -9.2394  -9.2328  -9.1805  -9.1741  -9.1563
    -9.1295  -9.0976  -9.0852  -9.0714  -9.0430  -9.0281  -9.0144  -9.0010
    -6.9644  -6.9485  -6.9450  -6.9383  -6.9347  -6.9170  -6.9111  -6.9055
    -6.8985  -6.8649  -6.8169  -6.8059  -6.8000  -6.7881  -6.7775  -6.7722
    -5.7715  -5.5827  -5.3666  -5.3327  -5.1898  -5.1440  -4.9482  -4.8682
    -4.8323  -4.8144  -4.8040  -4.7967  -4.7862  -4.7747  -4.7576  -4.6828
    -2.7875  -2.7732  -2.7694  -2.7560  -2.7516  -2.7471  -2.7412  -2.7392
    -2.7323  -2.7247  -2.7153  -2.7139  -2.7012  -2.6940  -2.6917  -2.6861
    -0.8487  -0.8172  -0.7824  -0.7747  -0.7462  -0.7276  -0.6460  -0.5851
    -0.4274  -0.3842  -0.2711  -0.2237   0.0940   0.1438   0.2655   0.2967
     0.3237   0.3392   0.3529   0.3736   0.4526   0.4615   0.4795   0.5492
     0.5566   0.6238   0.6306   0.6413   0.7211   0.8094   0.8219   0.8315
     0.8871   0.9245   0.9288   0.9557   0.9761   0.9800   0.9966   1.0085
     1.0332   1.0529   1.1001   1.1162   1.1421   1.1533   1.1964   1.2049
     1.2224   1.2286   1.2473   1.2559   1.2704   1.2829   1.3037   1.3249
     1.3462   1.3589   1.4058   1.4249   1.4694   1.4856   1.4943   1.5238
     1.5604   1.5705   1.5794   1.6006   1.6236   1.6542   1.8072   1.8575

          k =-0.1246 0.3806-0.1289 (299635 PWs)   bands (ev):

   -17.5047 -17.4852 -17.4453 -17.4254 -17.4249 -17.4224 -17.4183 -17.4143
   -14.2933 -14.2865 -14.2846 -14.2803 -14.2753 -14.2740 -14.2731 -14.2719
   -14.2684 -14.2679 -14.2676 -14.2623 -14.2609 -14.2593 -14.2540 -14.2536
   -14.2505 -14.2453 -14.2453 -14.2445 -14.2435 -14.2432 -14.2428 -14.2423
   -14.2394 -14.2358 -14.2347 -14.2340 -14.2337 -14.2328 -14.2308 -14.2305
   -14.2294 -14.2285 -14.2258 -14.2240 -14.2207 -14.2188 -14.2157 -14.2079
   -10.4873 -10.4653 -10.4532 -10.4495 -10.4441 -10.4342 -10.4195 -10.4133
    -9.6541  -9.5576  -9.4869  -9.4740  -9.4300  -9.4071  -9.3298  -9.2916
    -9.2866  -9.2743  -9.2531  -9.2328  -9.2309  -9.1806  -9.1752  -9.1550
    -9.1286  -9.0925  -9.0875  -9.0689  -9.0469  -9.0320  -9.0149  -8.9972
    -6.9643  -6.9484  -6.9445  -6.9386  -6.9345  -6.9166  -6.9117  -6.9059
    -6.8987  -6.8649  -6.8170  -6.8059  -6.8006  -6.7868  -6.7783  -6.7721
    -5.7719  -5.5825  -5.3670  -5.3260  -5.1891  -5.1524  -4.9627  -4.8520
    -4.8315  -4.8197  -4.8023  -4.7939  -4.7808  -4.7752  -4.7538  -4.6913
    -2.7881  -2.7724  -2.7700  -2.7568  -2.7513  -2.7465  -2.7423  -2.7396
    -2.7303  -2.7235  -2.7184  -2.7142  -2.7017  -2.6944  -2.6901  -2.6850
    -0.8579  -0.8320  -0.7831  -0.7672  -0.7412  -0.7298  -0.6502  -0.5896
    -0.4105  -0.3612  -0.2467  -0.2086   0.0812   0.1074   0.2549   0.2785
     0.3260   0.3331   0.3678   0.3872   0.4287   0.4390   0.4648   0.5152
     0.5606   0.6287   0.6557   0.6852   0.7109   0.8148   0.8264   0.8377
     0.8880   0.9048   0.9268   0.9727   0.9782   0.9888   1.0028   1.0273
     1.0399   1.0595   1.0931   1.1080   1.1433   1.1497   1.1861   1.1991
     1.2191   1.2268   1.2464   1.2621   1.2666   1.2892   1.3074   1.3327
     1.3430   1.3604   1.4017   1.4156   1.4487   1.4746   1.5026   1.5299
     1.5443   1.5631   1.5752   1.5999   1.6304   1.6856   1.7858   1.8972

          k = 0.1246-0.3806-0.1289 (299635 PWs)   bands (ev):

   -17.5047 -17.4852 -17.4453 -17.4254 -17.4249 -17.4224 -17.4183 -17.4143
   -14.2933 -14.2865 -14.2846 -14.2803 -14.2753 -14.2740 -14.2731 -14.2719
   -14.2684 -14.2679 -14.2676 -14.2623 -14.2609 -14.2593 -14.2540 -14.2536
   -14.2505 -14.2453 -14.2453 -14.2445 -14.2435 -14.2432 -14.2428 -14.2423
   -14.2394 -14.2358 -14.2347 -14.2340 -14.2337 -14.2328 -14.2308 -14.2305
   -14.2294 -14.2285 -14.2258 -14.2240 -14.2207 -14.2188 -14.2157 -14.2079
   -10.4873 -10.4653 -10.4533 -10.4494 -10.4441 -10.4341 -10.4195 -10.4133
    -9.6544  -9.5573  -9.4864  -9.4736  -9.4308  -9.4080  -9.3295  -9.2921
    -9.2846  -9.2729  -9.2543  -9.2376  -9.2285  -9.1805  -9.1736  -9.1554
    -9.1285  -9.0929  -9.0874  -9.0694  -9.0465  -9.0313  -9.0155  -8.9972
    -6.9644  -6.9481  -6.9447  -6.9387  -6.9345  -6.9166  -6.9113  -6.9059
    -6.8992  -6.8648  -6.8170  -6.8059  -6.8006  -6.7868  -6.7783  -6.7721
    -5.7721  -5.5823  -5.3670  -5.3258  -5.1893  -5.1525  -4.9630  -4.8517
    -4.8312  -4.8198  -4.8026  -4.7937  -4.7806  -4.7750  -4.7539  -4.6916
    -2.7881  -2.7728  -2.7698  -2.7563  -2.7515  -2.7469  -2.7423  -2.7401
    -2.7313  -2.7226  -2.7181  -2.7135  -2.7010  -2.6940  -2.6909  -2.6856
    -0.8569  -0.8341  -0.7814  -0.7728  -0.7354  -0.7303  -0.6497  -0.5894
    -0.4103  -0.3623  -0.2460  -0.2101   0.0803   0.1095   0.2568   0.2774
     0.3223   0.3390   0.3676   0.3868   0.4276   0.4365   0.4620   0.5179
     0.5641   0.6263   0.6534   0.6867   0.7121   0.8143   0.8256   0.8355
     0.8895   0.9091   0.9269   0.9675   0.9759   0.9944   1.0038   1.0265
     1.0384   1.0580   1.0922   1.1068   1.1428   1.1532   1.1863   1.2001
     1.2186   1.2288   1.2427   1.2632   1.2693   1.2867   1.3060   1.3321
     1.3467   1.3610   1.4012   1.4152   1.4478   1.4739   1.5026   1.5307
     1.5454   1.5630   1.5749   1.5979   1.6321   1.6855   1.7854   1.8974

          k =-0.1246-0.3806 0.3868 (299635 PWs)   bands (ev):

   -17.5047 -17.4852 -17.4453 -17.4254 -17.4249 -17.4224 -17.4183 -17.4143
   -14.2924 -14.2852 -14.2839 -14.2796 -14.2766 -14.2750 -14.2730 -14.2698
   -14.2692 -14.2686 -14.2670 -14.2634 -14.2609 -14.2592 -14.2540 -14.2536
   -14.2515 -14.2460 -14.2453 -14.2445 -14.2435 -14.2432 -14.2428 -14.2423
   -14.2394 -14.2358 -14.2347 -14.2340 -14.2337 -14.2328 -14.2308 -14.2305
   -14.2294 -14.2285 -14.2258 -14.2240 -14.2207 -14.2188 -14.2157 -14.2079
   -10.4866 -10.4634 -10.4530 -10.4503 -10.4441 -10.4341 -10.4205 -10.4144
    -9.6105  -9.5509  -9.5379  -9.4788  -9.4577  -9.3984  -9.3766  -9.3335
    -9.2864  -9.2547  -9.2094  -9.2052  -9.1952  -9.1671  -9.1499  -9.1405
    -9.1191  -9.1113  -9.1065  -9.0661  -9.0642  -9.0428  -9.0230  -9.0032
    -6.9697  -6.9485  -6.9394  -6.9367  -6.9349  -6.9174  -6.9101  -6.9067
    -6.8971  -6.8711  -6.8112  -6.7997  -6.7925  -6.7905  -6.7828  -6.7778
    -5.6541  -5.4745  -5.4657  -5.2869  -5.2544  -5.0888  -5.0805  -4.9434
    -4.8332  -4.8152  -4.8054  -4.7968  -4.7863  -4.7777  -4.7612  -4.7433
    -2.7877  -2.7748  -2.7725  -2.7557  -2.7502  -2.7465  -2.7406  -2.7372
    -2.7282  -2.7276  -2.7144  -2.7106  -2.7000  -2.6955  -2.6917  -2.6854
    -0.7894  -0.7379  -0.7275  -0.6746  -0.5288  -0.4583  -0.4330  -0.3868
    -0.3088  -0.2962  -0.2862  -0.2666   0.0665   0.1064   0.1275   0.1496
     0.2137   0.2580   0.2768   0.3397   0.3767   0.4124   0.4270   0.4369
     0.5185   0.5391   0.6122   0.6307   0.7161   0.7311   0.8007   0.8308
     0.8700   0.8839   0.9051   0.9433   0.9617   0.9711   0.9964   1.0098
     1.0319   1.0364   1.0539   1.0618   1.1060   1.1206   1.1350   1.1559
     1.2052   1.2298   1.2476   1.2525   1.2661   1.2826   1.3067   1.3235
     1.3784   1.3905   1.4067   1.4447   1.4550   1.4715   1.4855   1.5046
     1.5142   1.5358   1.5788   1.5907   1.6185   1.6463   1.6657   1.7025

          k =-0.1246 0.3806-0.3868 (299635 PWs)   bands (ev):

   -17.5047 -17.4852 -17.4453 -17.4254 -17.4249 -17.4224 -17.4183 -17.4143
   -14.2924 -14.2852 -14.2839 -14.2796 -14.2766 -14.2750 -14.2730 -14.2698
   -14.2692 -14.2686 -14.2670 -14.2634 -14.2609 -14.2593 -14.2540 -14.2536
   -14.2515 -14.2460 -14.2453 -14.2445 -14.2435 -14.2432 -14.2428 -14.2423
   -14.2394 -14.2358 -14.2347 -14.2340 -14.2337 -14.2328 -14.2308 -14.2305
   -14.2294 -14.2285 -14.2258 -14.2240 -14.2207 -14.2188 -14.2157 -14.2079
   -10.4868 -10.4643 -10.4523 -10.4504 -10.4443 -10.4346 -10.4199 -10.4137
    -9.6189  -9.5557  -9.5277  -9.4714  -9.4418  -9.4006  -9.3871  -9.3478
    -9.2860  -9.2540  -9.2077  -9.2020  -9.1982  -9.1690  -9.1472  -9.1361
    -9.1206  -9.1123  -9.1003  -9.0735  -9.0646  -9.0461  -9.0192  -9.0009
    -6.9697  -6.9482  -6.9392  -6.9372  -6.9349  -6.9169  -6.9110  -6.9070
    -6.8970  -6.8711  -6.8112  -6.7997  -6.7928  -6.7899  -6.7829  -6.7779
    -5.6522  -5.4714  -5.4661  -5.2916  -5.2576  -5.0891  -5.0839  -4.9317
    -4.8351  -4.8207  -4.8011  -4.7953  -4.7859  -4.7809  -4.7597  -4.7446
    -2.7883  -2.7742  -2.7727  -2.7558  -2.7491  -2.7462  -2.7421  -2.7367
    -2.7280  -2.7266  -2.7179  -2.7108  -2.7005  -2.6952  -2.6906  -2.6845
    -0.8081  -0.7518  -0.7217  -0.6694  -0.5193  -0.4496  -0.4217  -0.3768
    -0.3122  -0.2925  -0.2724  -0.2496   0.0521   0.0854   0.1209   0.1488
     0.2049   0.2250   0.2994   0.3254   0.3700   0.4088   0.4271   0.4478
     0.5098   0.5525   0.6224   0.6355   0.6995   0.7268   0.7979   0.8149
     0.8674   0.9029   0.9290   0.9469   0.9760   0.9901   0.9987   1.0058
     1.0233   1.0379   1.0486   1.0569   1.0681   1.1112   1.1358   1.1779
     1.1969   1.2309   1.2405   1.2666   1.2774   1.2884   1.3030   1.3406
     1.3848   1.4047   1.4185   1.4374   1.4547   1.4633   1.4790   1.4906
     1.5172   1.5241   1.5376   1.5672   1.6105   1.6414   1.7017   1.7512

          k = 0.1246-0.3806-0.3868 (299635 PWs)   bands (ev):

   -17.5047 -17.4852 -17.4453 -17.4254 -17.4249 -17.4224 -17.4183 -17.4143
   -14.2924 -14.2852 -14.2839 -14.2796 -14.2766 -14.2750 -14.2730 -14.2698
   -14.2692 -14.2686 -14.2670 -14.2634 -14.2609 -14.2593 -14.2540 -14.2536
   -14.2515 -14.2460 -14.2453 -14.2445 -14.2435 -14.2432 -14.2428 -14.2423
   -14.2394 -14.2358 -14.2347 -14.2340 -14.2337 -14.2328 -14.2308 -14.2305
   -14.2294 -14.2285 -14.2258 -14.2240 -14.2207 -14.2188 -14.2157 -14.2079
   -10.4868 -10.4643 -10.4524 -10.4503 -10.4442 -10.4346 -10.4199 -10.4137
    -9.6195  -9.5555  -9.5256  -9.4734  -9.4419  -9.4006  -9.3876  -9.3467
    -9.2856  -9.2549  -9.2095  -9.2008  -9.1980  -9.1685  -9.1463  -9.1362
    -9.1224  -9.1105  -9.1008  -9.0748  -9.0647  -9.0441  -9.0201  -9.0008
    -6.9697  -6.9481  -6.9390  -6.9376  -6.9349  -6.9170  -6.9105  -6.9069
    -6.8977  -6.8709  -6.8112  -6.7997  -6.7928  -6.7900  -6.7830  -6.7777
    -5.6526  -5.4712  -5.4656  -5.2918  -5.2574  -5.0904  -5.0836  -4.9308
    -4.8350  -4.8207  -4.8015  -4.7951  -4.7857  -4.7806  -4.7599  -4.7449
    -2.7883  -2.7745  -2.7725  -2.7559  -2.7494  -2.7457  -2.7423  -2.7373
    -2.7295  -2.7251  -2.7179  -2.7098  -2.6995  -2.6951  -2.6914  -2.6850
    -0.8081  -0.7515  -0.7230  -0.6695  -0.5200  -0.4463  -0.4186  -0.3774
    -0.3119  -0.2909  -0.2728  -0.2577   0.0533   0.0837   0.1288   0.1454
     0.2069   0.2253   0.3025   0.3174   0.3706   0.4110   0.4275   0.4448
     0.5089   0.5534   0.6242   0.6357   0.6968   0.7266   0.7995   0.8153
     0.8635   0.9011   0.9317   0.9533   0.9728   0.9902   0.9985   1.0064
     1.0241   1.0359   1.0520   1.0561   1.0625   1.1135   1.1385   1.1748
     1.1969   1.2297   1.2475   1.2675   1.2793   1.2866   1.2961   1.3416
     1.3897   1.3989   1.4177   1.4379   1.4526   1.4671   1.4754   1.4948
     1.5108   1.5314   1.5368   1.5672   1.6106   1.6404   1.7020   1.7511

          k =-0.3739-0.1269 0.1289 (299683 PWs)   bands (ev):

   -17.5047 -17.4852 -17.4453 -17.4254 -17.4249 -17.4224 -17.4182 -17.4143
   -14.2924 -14.2868 -14.2843 -14.2801 -14.2776 -14.2751 -14.2745 -14.2712
   -14.2685 -14.2668 -14.2657 -14.2633 -14.2601 -14.2591 -14.2540 -14.2536
   -14.2510 -14.2453 -14.2449 -14.2444 -14.2435 -14.2432 -14.2428 -14.2423
   -14.2394 -14.2358 -14.2347 -14.2340 -14.2337 -14.2328 -14.2308 -14.2305
   -14.2294 -14.2285 -14.2258 -14.2240 -14.2207 -14.2188 -14.2157 -14.2079
   -10.4880 -10.4653 -10.4564 -10.4482 -10.4443 -10.4319 -10.4192 -10.4127
    -9.6437  -9.5874  -9.4866  -9.4783  -9.4153  -9.4012  -9.3314  -9.2952
    -9.2844  -9.2725  -9.2415  -9.2338  -9.1940  -9.1847  -9.1732  -9.1549
    -9.1263  -9.1151  -9.1038  -9.0889  -9.0530  -9.0245  -9.0144  -8.9844
    -6.9647  -6.9478  -6.9457  -6.9372  -6.9347  -6.9165  -6.9110  -6.9058
    -6.8988  -6.8656  -6.8174  -6.8059  -6.8001  -6.7884  -6.7750  -6.7732
    -5.7808  -5.6086  -5.3428  -5.3365  -5.1784  -5.1687  -4.9216  -4.8638
    -4.8348  -4.8094  -4.8041  -4.7944  -4.7860  -4.7688  -4.7633  -4.6780
    -2.7939  -2.7784  -2.7678  -2.7562  -2.7521  -2.7509  -2.7391  -2.7369
    -2.7313  -2.7203  -2.7077  -2.7052  -2.7022  -2.6999  -2.6962  -2.6870
    -0.8541  -0.8170  -0.8036  -0.7600  -0.7395  -0.7072  -0.6255  -0.5944
    -0.4451  -0.3798  -0.2962  -0.2264   0.0912   0.1600   0.2706   0.2841
     0.3129   0.3260   0.3486   0.3627   0.4264   0.4409   0.4561   0.5189
     0.5480   0.6089   0.6174   0.6631   0.6998   0.7874   0.8194   0.8266
     0.8749   0.8914   0.9255   0.9721   0.9817   1.0166   1.0283   1.0452
     1.0636   1.0743   1.0961   1.1053   1.1256   1.1530   1.1983   1.2117
     1.2299   1.2346   1.2462   1.2618   1.2714   1.2844   1.2894   1.3183
     1.3276   1.3520   1.3886   1.4209   1.4549   1.4738   1.5054   1.5454
     1.5666   1.5905   1.5952   1.6054   1.6367   1.6434   1.8846   1.9063

          k =-0.3739 0.1269-0.1289 (299683 PWs)   bands (ev):

   -17.5047 -17.4852 -17.4453 -17.4254 -17.4249 -17.4224 -17.4182 -17.4143
   -14.2924 -14.2868 -14.2843 -14.2801 -14.2776 -14.2751 -14.2745 -14.2712
   -14.2685 -14.2668 -14.2657 -14.2633 -14.2601 -14.2591 -14.2540 -14.2536
   -14.2510 -14.2453 -14.2449 -14.2444 -14.2435 -14.2432 -14.2428 -14.2423
   -14.2394 -14.2358 -14.2347 -14.2340 -14.2337 -14.2328 -14.2308 -14.2305
   -14.2294 -14.2285 -14.2258 -14.2240 -14.2207 -14.2188 -14.2157 -14.2079
   -10.4883 -10.4662 -10.4557 -10.4483 -10.4443 -10.4324 -10.4186 -10.4120
    -9.6558  -9.5726  -9.4841  -9.4605  -9.4316  -9.4123  -9.3293  -9.2992
    -9.2821  -9.2716  -9.2422  -9.2329  -9.1967  -9.1851  -9.1715  -9.1544
    -9.1255  -9.1112  -9.0993  -9.0891  -9.0601  -9.0249  -9.0138  -8.9830
    -6.9646  -6.9478  -6.9453  -6.9373  -6.9346  -6.9160  -6.9116  -6.9062
    -6.8989  -6.8656  -6.8175  -6.8058  -6.8007  -6.7872  -6.7759  -6.7729
    -5.7811  -5.6084  -5.3395  -5.3339  -5.1792  -5.1749  -4.9387  -4.8479
    -4.8339  -4.8132  -4.8018  -4.7937  -4.7790  -4.7675  -4.7604  -4.6866
    -2.7942  -2.7790  -2.7664  -2.7575  -2.7528  -2.7513  -2.7371  -2.7361
    -2.7313  -2.7210  -2.7120  -2.7057  -2.7020  -2.6984  -2.6941  -2.6865
    -0.8636  -0.8252  -0.8077  -0.7534  -0.7403  -0.7067  -0.6300  -0.5995
    -0.4268  -0.3578  -0.2687  -0.2124   0.0800   0.1175   0.2508   0.2706
     0.3185   0.3320   0.3543   0.3714   0.4113   0.4232   0.4426   0.5106
     0.5286   0.6128   0.6328   0.6780   0.7310   0.7830   0.8084   0.8376
     0.8590   0.9119   0.9591   0.9708   0.9921   1.0060   1.0240   1.0427
     1.0601   1.0757   1.0971   1.1141   1.1278   1.1462   1.1985   1.2131
     1.2273   1.2379   1.2464   1.2581   1.2722   1.2748   1.2855   1.3141
     1.3316   1.3575   1.3805   1.4205   1.4417   1.4757   1.4974   1.5496
     1.5689   1.5788   1.5863   1.5997   1.6187   1.6997   1.8615   1.9447

          k = 0.3739-0.1269-0.1289 (299683 PWs)   bands (ev):

   -17.5047 -17.4852 -17.4453 -17.4254 -17.4249 -17.4224 -17.4182 -17.4143
   -14.2924 -14.2868 -14.2843 -14.2801 -14.2775 -14.2751 -14.2745 -14.2712
   -14.2685 -14.2668 -14.2657 -14.2633 -14.2601 -14.2591 -14.2540 -14.2536
   -14.2510 -14.2453 -14.2449 -14.2444 -14.2435 -14.2432 -14.2428 -14.2423
   -14.2394 -14.2358 -14.2347 -14.2340 -14.2337 -14.2328 -14.2308 -14.2305
   -14.2294 -14.2285 -14.2258 -14.2240 -14.2207 -14.2188 -14.2157 -14.2079
   -10.4883 -10.4662 -10.4558 -10.4483 -10.4442 -10.4324 -10.4186 -10.4120
    -9.6557  -9.5730  -9.4842  -9.4601  -9.4319  -9.4114  -9.3309  -9.2977
    -9.2824  -9.2717  -9.2416  -9.2343  -9.1962  -9.1847  -9.1725  -9.1529
    -9.1266  -9.1112  -9.0979  -9.0897  -9.0606  -9.0247  -9.0138  -8.9830
    -6.9647  -6.9474  -6.9456  -6.9373  -6.9346  -6.9160  -6.9112  -6.9062
    -6.8994  -6.8654  -6.8175  -6.8058  -6.8007  -6.7872  -6.7759  -6.7728
    -5.7812  -5.6083  -5.3396  -5.3335  -5.1793  -5.1751  -4.9387  -4.8478
    -4.8339  -4.8131  -4.8020  -4.7936  -4.7790  -4.7674  -4.7605  -4.6866
    -2.7941  -2.7792  -2.7666  -2.7576  -2.7535  -2.7506  -2.7377  -2.7359
    -2.7312  -2.7200  -2.7127  -2.7045  -2.7019  -2.6985  -2.6948  -2.6867
    -0.8633  -0.8262  -0.8068  -0.7532  -0.7406  -0.7077  -0.6299  -0.6000
    -0.4253  -0.3573  -0.2691  -0.2127   0.0800   0.1163   0.2600   0.2667
     0.3159   0.3305   0.3538   0.3711   0.4122   0.4234   0.4447   0.5076
     0.5283   0.6105   0.6360   0.6772   0.7313   0.7836   0.8058   0.8350
     0.8586   0.9154   0.9618   0.9664   0.9984   1.0102   1.0212   1.0403
     1.0561   1.0803   1.0947   1.1153   1.1295   1.1402   1.1983   1.2141
     1.2313   1.2362   1.2439   1.2582   1.2722   1.2774   1.2890   1.3102
     1.3407   1.3520   1.3806   1.4197   1.4416   1.4743   1.4962   1.5490
     1.5683   1.5812   1.5858   1.6001   1.6175   1.6998   1.8617   1.9445

          k =-0.3739-0.1269 0.3868 (299687 PWs)   bands (ev):

   -17.5047 -17.4852 -17.4453 -17.4254 -17.4250 -17.4224 -17.4182 -17.4143
   -14.2915 -14.2857 -14.2824 -14.2804 -14.2784 -14.2764 -14.2744 -14.2699
   -14.2688 -14.2669 -14.2656 -14.2626 -14.2625 -14.2584 -14.2540 -14.2536
   -14.2521 -14.2454 -14.2453 -14.2445 -14.2435 -14.2432 -14.2428 -14.2423
   -14.2394 -14.2358 -14.2346 -14.2340 -14.2337 -14.2328 -14.2308 -14.2305
   -14.2294 -14.2285 -14.2258 -14.2240 -14.2207 -14.2188 -14.2157 -14.2079
   -10.4873 -10.4651 -10.4546 -10.4493 -10.4450 -10.4321 -10.4195 -10.4130
    -9.6095  -9.5537  -9.5470  -9.4890  -9.4503  -9.3977  -9.3814  -9.3415
    -9.2448  -9.2202  -9.2058  -9.1960  -9.1889  -9.1810  -9.1594  -9.1554
    -9.1339  -9.1282  -9.1066  -9.0799  -9.0666  -9.0353  -9.0221  -8.9953
    -6.9700  -6.9479  -6.9393  -6.9369  -6.9339  -6.9170  -6.9103  -6.9070
    -6.8970  -6.8712  -6.8113  -6.8000  -6.7930  -6.7903  -6.7820  -6.7780
    -5.6632  -5.4929  -5.4810  -5.3113  -5.2265  -5.0785  -5.0524  -4.9338
    -4.8329  -4.8111  -4.8032  -4.7924  -4.7910  -4.7768  -4.7637  -4.7443
    -2.7929  -2.7695  -2.7661  -2.7576  -2.7497  -2.7473  -2.7415  -2.7386
    -2.7309  -2.7216  -2.7117  -2.7079  -2.7030  -2.6976  -2.6958  -2.6891
    -0.7799  -0.7406  -0.7184  -0.6729  -0.5215  -0.4500  -0.4177  -0.3954
    -0.3426  -0.2999  -0.2799  -0.2667   0.0596   0.0716   0.1185   0.1545
     0.2160   0.2340   0.2509   0.3167   0.4037   0.4103   0.4248   0.4298
     0.5246   0.5689   0.6182   0.6541   0.6777   0.7153   0.7393   0.7867
     0.8067   0.8688   0.8733   0.9023   0.9174   0.9727   1.0144   1.0298
     1.0402   1.0528   1.0637   1.0775   1.1280   1.1467   1.1696   1.1773
     1.2218   1.2513   1.2594   1.2680   1.2804   1.3023   1.3149   1.3307
     1.3593   1.3799   1.3966   1.4189   1.4510   1.4738   1.4828   1.5321
     1.5457   1.5599   1.5803   1.5920   1.6291   1.6546   1.7036   1.7321

          k =-0.3739 0.1269-0.3868 (299687 PWs)   bands (ev):

   -17.5047 -17.4852 -17.4453 -17.4254 -17.4250 -17.4224 -17.4182 -17.4143
   -14.2915 -14.2857 -14.2824 -14.2804 -14.2784 -14.2764 -14.2744 -14.2699
   -14.2688 -14.2669 -14.2656 -14.2626 -14.2625 -14.2584 -14.2540 -14.2536
   -14.2521 -14.2454 -14.2453 -14.2445 -14.2435 -14.2432 -14.2428 -14.2423
   -14.2394 -14.2358 -14.2346 -14.2340 -14.2337 -14.2328 -14.2308 -14.2305
   -14.2294 -14.2285 -14.2258 -14.2240 -14.2207 -14.2188 -14.2157 -14.2079
   -10.4875 -10.4659 -10.4538 -10.4494 -10.4452 -10.4327 -10.4189 -10.4123
    -9.6196  -9.5537  -9.5396  -9.4811  -9.4363  -9.4032  -9.3857  -9.3553
    -9.2449  -9.2184  -9.2077  -9.1974  -9.1891  -9.1816  -9.1609  -9.1482
    -9.1344  -9.1214  -9.1077  -9.0855  -9.0670  -9.0385  -9.0188  -8.9935
    -6.9700  -6.9476  -6.9392  -6.9372  -6.9342  -6.9166  -6.9110  -6.9072
    -6.8970  -6.8712  -6.8113  -6.8000  -6.7934  -6.7897  -6.7821  -6.7780
    -5.6613  -5.4939  -5.4777  -5.3159  -5.2300  -5.0749  -5.0597  -4.9214
    -4.8348  -4.8165  -4.7987  -4.7929  -4.7885  -4.7806  -4.7621  -4.7458
    -2.7932  -2.7701  -2.7653  -2.7572  -2.7509  -2.7456  -2.7411  -2.7388
    -2.7308  -2.7221  -2.7130  -2.7115  -2.7023  -2.6966  -2.6940  -2.6885
    -0.8004  -0.7366  -0.7321  -0.6686  -0.5049  -0.4374  -0.4088  -0.3783
    -0.3542  -0.2931  -0.2705  -0.2506   0.0467   0.0507   0.1227   0.1434
     0.1911   0.2295   0.2543   0.2967   0.4009   0.4067   0.4298   0.4413
     0.5151   0.5840   0.6327   0.6524   0.6797   0.7072   0.7287   0.7768
     0.8106   0.8556   0.8828   0.9310   0.9438   0.9768   0.9962   1.0171
     1.0348   1.0457   1.0623   1.0841   1.1081   1.1571   1.1705   1.1985
     1.2188   1.2505   1.2623   1.2721   1.2820   1.2933   1.3154   1.3638
     1.3666   1.3753   1.3837   1.4111   1.4597   1.4872   1.4913   1.5175
     1.5253   1.5431   1.5646   1.5809   1.5966   1.6803   1.7160   1.7762

          k = 0.3739-0.1269-0.3868 (299687 PWs)   bands (ev):

   -17.5047 -17.4852 -17.4453 -17.4254 -17.4250 -17.4224 -17.4182 -17.4143
   -14.2915 -14.2857 -14.2824 -14.2804 -14.2784 -14.2764 -14.2744 -14.2699
   -14.2688 -14.2669 -14.2656 -14.2626 -14.2625 -14.2584 -14.2540 -14.2536
   -14.2521 -14.2454 -14.2453 -14.2445 -14.2435 -14.2432 -14.2428 -14.2423
   -14.2394 -14.2358 -14.2346 -14.2340 -14.2337 -14.2328 -14.2308 -14.2305
   -14.2294 -14.2285 -14.2258 -14.2240 -14.2207 -14.2188 -14.2157 -14.2079
   -10.4875 -10.4658 -10.4539 -10.4494 -10.4452 -10.4327 -10.4189 -10.4123
    -9.6193  -9.5545  -9.5398  -9.4804  -9.4341  -9.4045  -9.3872  -9.3545
    -9.2446  -9.2189  -9.2080  -9.1965  -9.1909  -9.1815  -9.1583  -9.1488
    -9.1340  -9.1244  -9.1046  -9.0867  -9.0677  -9.0377  -9.0190  -8.9935
    -6.9700  -6.9475  -6.9392  -6.9371  -6.9344  -6.9166  -6.9105  -6.9071
    -6.8977  -6.8710  -6.8113  -6.8000  -6.7933  -6.7898  -6.7822  -6.7779
    -5.6615  -5.4944  -5.4768  -5.3162  -5.2296  -5.0753  -5.0599  -4.9210
    -4.8348  -4.8165  -4.7991  -4.7928  -4.7884  -4.7804  -4.7622  -4.7458
    -2.7931  -2.7706  -2.7653  -2.7569  -2.7511  -2.7459  -2.7413  -2.7393
    -2.7308  -2.7200  -2.7140  -2.7110  -2.7017  -2.6961  -2.6953  -2.6887
    -0.8009  -0.7362  -0.7304  -0.6693  -0.5109  -0.4384  -0.4081  -0.3800
    -0.3476  -0.2925  -0.2638  -0.2547   0.0425   0.0554   0.1187   0.1462
     0.1883   0.2277   0.2542   0.2984   0.4012   0.4081   0.4298   0.4405
     0.5178   0.5813   0.6335   0.6440   0.6805   0.7082   0.7351   0.7770
     0.8062   0.8570   0.8869   0.9271   0.9442   0.9778   0.9966   1.0155
     1.0326   1.0495   1.0639   1.0872   1.1023   1.1579   1.1721   1.2001
     1.2173   1.2508   1.2604   1.2725   1.2796   1.2963   1.3179   1.3569
     1.3673   1.3751   1.3887   1.4109   1.4603   1.4818   1.4965   1.5161
     1.5233   1.5431   1.5663   1.5793   1.5970   1.6813   1.7159   1.7758

          k =-0.3739-0.3806 0.1289 (299601 PWs)   bands (ev):

   -17.5047 -17.4852 -17.4453 -17.4254 -17.4249 -17.4224 -17.4182 -17.4143
   -14.2924 -14.2861 -14.2842 -14.2797 -14.2772 -14.2739 -14.2736 -14.2714
   -14.2678 -14.2676 -14.2667 -14.2636 -14.2607 -14.2601 -14.2540 -14.2536
   -14.2512 -14.2453 -14.2453 -14.2445 -14.2434 -14.2432 -14.2428 -14.2423
   -14.2394 -14.2358 -14.2347 -14.2340 -14.2337 -14.2328 -14.2308 -14.2305
   -14.2294 -14.2285 -14.2258 -14.2240 -14.2207 -14.2188 -14.2157 -14.2079
   -10.4872 -10.4655 -10.4524 -10.4489 -10.4446 -10.4341 -10.4198 -10.4135
    -9.6017  -9.5667  -9.5461  -9.4549  -9.4504  -9.3967  -9.3794  -9.3294
    -9.2840  -9.2703  -9.2460  -9.2396  -9.1863  -9.1422  -9.1363  -9.1243
    -9.1140  -9.1053  -9.0939  -9.0802  -9.0544  -9.0420  -9.0362  -9.0082
    -6.9642  -6.9479  -6.9461  -6.9370  -6.9345  -6.9166  -6.9121  -6.9055
    -6.8974  -6.8651  -6.8169  -6.8059  -6.7994  -6.7890  -6.7763  -6.7739
    -5.6635  -5.5013  -5.4717  -5.3156  -5.2382  -5.0673  -5.0386  -4.9450
    -4.8354  -4.8149  -4.8031  -4.7950  -4.7900  -4.7718  -4.7613  -4.7359
    -2.7864  -2.7719  -2.7691  -2.7555  -2.7478  -2.7456  -2.7413  -2.7378
    -2.7328  -2.7258  -2.7151  -2.7131  -2.7011  -2.6987  -2.6949  -2.6859
    -0.8235  -0.7891  -0.7521  -0.7040  -0.4948  -0.4685  -0.4457  -0.3386
    -0.3209  -0.2972  -0.2693  -0.2290   0.0673   0.1335   0.1499   0.2189
     0.2833   0.3016   0.3202   0.3291   0.3498   0.3733   0.3947   0.4436
[...]
    -4.8376  -4.8222  -4.8025  -4.7900  -4.7853  -4.7803  -4.7611  -4.7472
    -2.7870  -2.7703  -2.7673  -2.7572  -2.7496  -2.7436  -2.7420  -2.7382
    -2.7289  -2.7256  -2.7193  -2.7153  -2.7018  -2.6970  -2.6931  -2.6834
    -0.8348  -0.7819  -0.7418  -0.7156  -0.6046  -0.4281  -0.3983  -0.3835
    -0.2593  -0.2535  -0.2399  -0.1053  -0.0605   0.1315   0.1354   0.1431
     0.2611   0.2737   0.2854   0.2963   0.3697   0.3866   0.4042   0.4881
     0.4981   0.5901   0.6171   0.6503   0.6918   0.7343   0.7526   0.7634
     0.8217   0.8394   0.8537   0.8644   0.9182   0.9348   0.9561   0.9679
     0.9945   1.0609   1.0716   1.1135   1.1503   1.1765   1.1983   1.2059
     1.2183   1.2361   1.2551   1.2633   1.2748   1.2967   1.3070   1.3604
     1.3853   1.4142   1.4240   1.4318   1.4443   1.4623   1.4728   1.4996
     1.5059   1.5390   1.5620   1.5943   1.6093   1.6242   1.6384   1.7638

          k = 0.3738-0.3807-0.1289 (299583 PWs)   bands (ev):

   -17.5020 -17.4866 -17.4503 -17.4287 -17.4263 -17.4257 -17.4193 -17.4167
   -14.2908 -14.2846 -14.2825 -14.2784 -14.2757 -14.2729 -14.2717 -14.2706
   -14.2667 -14.2663 -14.2660 -14.2628 -14.2600 -14.2591 -14.2521 -14.2519
   -14.2504 -14.2445 -14.2432 -14.2427 -14.2424 -14.2418 -14.2415 -14.2403
   -14.2377 -14.2346 -14.2336 -14.2327 -14.2326 -14.2317 -14.2302 -14.2291
   -14.2284 -14.2275 -14.2248 -14.2236 -14.2196 -14.2180 -14.2148 -14.2070
   -10.4863 -10.4679 -10.4543 -10.4486 -10.4442 -10.4333 -10.4197 -10.4137
    -9.6278  -9.5342  -9.5170  -9.4903  -9.4543  -9.3917  -9.3802  -9.3321
    -9.2822  -9.2692  -9.2467  -9.2401  -9.1860  -9.1416  -9.1361  -9.1279
    -9.1072  -9.1009  -9.0924  -9.0731  -9.0611  -9.0500  -9.0342  -9.0036
    -6.9661  -6.9499  -6.9454  -6.9413  -6.9368  -6.9225  -6.9139  -6.9094
    -6.8987  -6.8667  -6.8203  -6.8089  -6.8021  -6.7878  -6.7796  -6.7758
    -5.6644  -5.4961  -5.4773  -5.3143  -5.2193  -5.0846  -5.0681  -4.9061
    -4.8376  -4.8223  -4.8028  -4.7898  -4.7851  -4.7803  -4.7613  -4.7472
    -2.7869  -2.7708  -2.7671  -2.7566  -2.7508  -2.7439  -2.7417  -2.7378
    -2.7295  -2.7237  -2.7200  -2.7152  -2.7003  -2.6976  -2.6935  -2.6838
    -0.8345  -0.7818  -0.7426  -0.7151  -0.6053  -0.4283  -0.3967  -0.3839
    -0.2618  -0.2519  -0.2393  -0.1077  -0.0582   0.1331   0.1350   0.1432
     0.2636   0.2737   0.2857   0.2959   0.3666   0.3870   0.4037   0.4867
     0.4988   0.5883   0.6189   0.6520   0.6884   0.7343   0.7503   0.7631
     0.8201   0.8409   0.8519   0.8668   0.9204   0.9356   0.9573   0.9710
     0.9945   1.0609   1.0694   1.1176   1.1459   1.1713   1.1949   1.2108
     1.2223   1.2319   1.2575   1.2614   1.2721   1.2936   1.3194   1.3615
     1.3907   1.4068   1.4235   1.4282   1.4417   1.4649   1.4749   1.4968
     1.5060   1.5404   1.5607   1.5996   1.6054   1.6251   1.6376   1.7636

          k =-0.3738-0.3807 0.3868 (299636 PWs)   bands (ev):

   -17.5020 -17.4866 -17.4503 -17.4287 -17.4263 -17.4257 -17.4193 -17.4167
   -14.2898 -14.2833 -14.2807 -14.2789 -14.2768 -14.2741 -14.2714 -14.2681
   -14.2675 -14.2667 -14.2659 -14.2628 -14.2619 -14.2584 -14.2522 -14.2519
   -14.2514 -14.2452 -14.2432 -14.2427 -14.2424 -14.2418 -14.2415 -14.2403
   -14.2377 -14.2346 -14.2336 -14.2327 -14.2326 -14.2317 -14.2302 -14.2291
   -14.2284 -14.2275 -14.2247 -14.2237 -14.2196 -14.2180 -14.2148 -14.2070
   -10.4856 -10.4662 -10.4543 -10.4490 -10.4443 -10.4333 -10.4207 -10.4148
    -9.5707  -9.5323  -9.5150  -9.5129  -9.4668  -9.4515  -9.4269  -9.3822
    -9.2446  -9.2124  -9.1943  -9.1864  -9.1775  -9.1539  -9.1390  -9.1376
    -9.1223  -9.1117  -9.0894  -9.0752  -9.0662  -9.0529  -9.0449  -9.0139
    -6.9711  -6.9507  -6.9424  -6.9386  -6.9345  -6.9238  -6.9129  -6.9102
    -6.8957  -6.8737  -6.8153  -6.8031  -6.7942  -6.7905  -6.7846  -6.7806
    -5.5501  -5.3875  -5.3730  -5.3577  -5.2138  -5.2056  -5.1786  -5.0538
    -4.8363  -4.8173  -4.8061  -4.7963  -4.7907  -4.7815  -4.7648  -4.7582
    -2.7869  -2.7734  -2.7712  -2.7522  -2.7493  -2.7467  -2.7399  -2.7376
    -2.7303  -2.7254  -2.7137  -2.7115  -2.7009  -2.6955  -2.6941  -2.6850
    -0.5383  -0.5280  -0.4955  -0.4437  -0.4212  -0.3718  -0.3592  -0.3369
    -0.3259  -0.3053  -0.2948  -0.2060   0.0664   0.0799   0.1086   0.1248
     0.1873   0.2089   0.2260   0.2328   0.2796   0.2898   0.3032   0.3642
     0.5915   0.6039   0.6237   0.6397   0.6802   0.7051   0.7350   0.7526
     0.7700   0.7932   0.8382   0.8661   0.8726   0.8989   0.9105   0.9241
     0.9555   0.9739   0.9884   1.0103   1.0426   1.0548   1.0817   1.0885
     1.2405   1.2687   1.2768   1.2881   1.2979   1.3138   1.3352   1.3586
     1.3996   1.4156   1.4314   1.4384   1.4529   1.4705   1.4773   1.5027
     1.5118   1.5356   1.5471   1.5603   1.5722   1.5864   1.5956   1.5998

          k =-0.3738 0.3807-0.3868 (299636 PWs)   bands (ev):

   -17.5020 -17.4866 -17.4503 -17.4287 -17.4263 -17.4257 -17.4193 -17.4167
   -14.2898 -14.2833 -14.2808 -14.2789 -14.2768 -14.2741 -14.2714 -14.2681
   -14.2675 -14.2667 -14.2659 -14.2628 -14.2619 -14.2584 -14.2522 -14.2519
   -14.2514 -14.2452 -14.2432 -14.2427 -14.2424 -14.2418 -14.2415 -14.2403
   -14.2377 -14.2346 -14.2336 -14.2327 -14.2326 -14.2317 -14.2302 -14.2291
   -14.2284 -14.2275 -14.2247 -14.2237 -14.2196 -14.2180 -14.2148 -14.2070
   -10.4858 -10.4670 -10.4536 -10.4492 -10.4443 -10.4339 -10.4201 -10.4141
    -9.5916  -9.5276  -9.5041  -9.4903  -9.4595  -9.4502  -9.4363  -9.4018
    -9.2444  -9.2121  -9.1958  -9.1871  -9.1781  -9.1513  -9.1449  -9.1320
    -9.1188  -9.0955  -9.0934  -9.0882  -9.0698  -9.0602  -9.0365  -9.0106
    -6.9711  -6.9504  -6.9421  -6.9393  -6.9344  -6.9236  -6.9134  -6.9105
    -6.8956  -6.8737  -6.8153  -6.8031  -6.7945  -6.7900  -6.7848  -6.7807
    -5.5458  -5.3863  -5.3695  -5.3621  -5.2159  -5.2060  -5.1966  -5.0340
    -4.8381  -4.8227  -4.8015  -4.7941  -4.7907  -4.7874  -4.7629  -4.7571
    -2.7875  -2.7728  -2.7713  -2.7523  -2.7485  -2.7462  -2.7413  -2.7367
    -2.7298  -2.7246  -2.7183  -2.7118  -2.7010  -2.6947  -2.6926  -2.6846
    -0.6130  -0.5376  -0.4800  -0.4493  -0.4210  -0.3687  -0.3382  -0.3257
    -0.2849  -0.2688  -0.2039  -0.1751  -0.0002   0.0243   0.0639   0.0858
     0.1213   0.2073   0.2166   0.2271   0.3064   0.3312   0.3442   0.3544
     0.5566   0.6171   0.6338   0.6696   0.6797   0.7062   0.7369   0.7443
     0.7746   0.8060   0.8392   0.8499   0.8864   0.9013   0.9037   0.9235
     0.9583   0.9715   0.9945   1.0049   1.0264   1.0493   1.0926   1.1196
     1.2359   1.2658   1.2799   1.2923   1.2974   1.3107   1.3326   1.3763
     1.4057   1.4173   1.4261   1.4414   1.4556   1.4602   1.4682   1.4817
     1.5010   1.5218   1.5331   1.5376   1.5483   1.5728   1.6436   1.6646

          k = 0.3738-0.3807-0.3868 (299636 PWs)   bands (ev):

   -17.5020 -17.4866 -17.4503 -17.4287 -17.4263 -17.4257 -17.4193 -17.4167
   -14.2898 -14.2833 -14.2807 -14.2789 -14.2768 -14.2741 -14.2714 -14.2681
   -14.2675 -14.2667 -14.2659 -14.2628 -14.2619 -14.2584 -14.2522 -14.2519
   -14.2514 -14.2452 -14.2432 -14.2427 -14.2424 -14.2418 -14.2415 -14.2403
   -14.2377 -14.2346 -14.2336 -14.2327 -14.2326 -14.2317 -14.2302 -14.2291
   -14.2284 -14.2275 -14.2247 -14.2237 -14.2196 -14.2180 -14.2148 -14.2070
   -10.4858 -10.4670 -10.4536 -10.4492 -10.4443 -10.4338 -10.4201 -10.4141
    -9.5920  -9.5276  -9.5043  -9.4884  -9.4603  -9.4495  -9.4387  -9.4007
    -9.2443  -9.2123  -9.1966  -9.1887  -9.1761  -9.1512  -9.1448  -9.1281
    -9.1209  -9.0993  -9.0939  -9.0859  -9.0719  -9.0571  -9.0370  -9.0108
    -6.9712  -6.9503  -6.9423  -6.9388  -6.9350  -6.9236  -6.9128  -6.9103
    -6.8964  -6.8734  -6.8153  -6.8031  -6.7945  -6.7899  -6.7849  -6.7805
    -5.5459  -5.3870  -5.3690  -5.3614  -5.2164  -5.2057  -5.1972  -5.0336
    -4.8381  -4.8227  -4.8019  -4.7938  -4.7904  -4.7874  -4.7632  -4.7571
    -2.7875  -2.7731  -2.7712  -2.7532  -2.7489  -2.7447  -2.7418  -2.7368
    -2.7298  -2.7242  -2.7186  -2.7113  -2.7000  -2.6944  -2.6936  -2.6849
    -0.6099  -0.5405  -0.4782  -0.4569  -0.4232  -0.3654  -0.3349  -0.3207
    -0.2862  -0.2723  -0.2020  -0.1761   0.0029   0.0291   0.0624   0.0816
     0.1218   0.2041   0.2181   0.2273   0.3074   0.3301   0.3426   0.3537
     0.5577   0.6137   0.6352   0.6700   0.6832   0.7053   0.7367   0.7432
     0.7693   0.8039   0.8424   0.8536   0.8848   0.8981   0.9142   0.9217
     0.9553   0.9722   0.9899   1.0087   1.0283   1.0498   1.0914   1.1195
     1.2359   1.2678   1.2791   1.2917   1.2985   1.3062   1.3355   1.3768
     1.4061   1.4159   1.4272   1.4400   1.4544   1.4577   1.4676   1.4834
     1.5031   1.5221   1.5330   1.5385   1.5465   1.5741   1.6428   1.6648

     highest occupied level (ev):     2.0735

!    total energy              =  -16491.15717629 Ry
     Harris-Foulkes estimate   =  -16491.15717635 Ry
     estimated scf accuracy    <          3.6E-10 Ry

     total all-electron energy =   -677247.826441 Ry

     The total energy is the sum of the following terms:

     one-electron contribution =    -826.47634139 Ry
     hartree contribution      =     599.19042736 Ry
     xc contribution           =    -755.73465998 Ry
     ewald contribution        =   -1153.30706942 Ry
     DFT-D3 Dispersion         =      -0.62621504 Ry
     one-center paw contrib.   =  -14354.20331783 Ry

     convergence has been achieved in  13 iterations

     Forces acting on atoms (cartesian axes, Ry/au):

     atom    1 type  1   force =    -0.00001446    0.00003063   -0.00003152
     atom    2 type  1   force =    -0.00003212    0.00007778    0.00000415
     atom    3 type  1   force =     0.00001030   -0.00001050    0.00002157
     atom    4 type  1   force =     0.00000895   -0.00005141   -0.00002505
     atom    5 type  1   force =     0.00001092    0.00001096   -0.00002169
     atom    6 type  1   force =    -0.00001580   -0.00002081    0.00001933
     atom    7 type  1   force =    -0.00000451   -0.00000439   -0.00000837
     atom    8 type  1   force =     0.00000732    0.00001286    0.00000531
     atom    9 type  2   force =     0.00005613    0.00006477   -0.00000106
     atom   10 type  2   force =    -0.00003439    0.00000264    0.00002231
     atom   11 type  2   force =    -0.00004414   -0.00004327   -0.00000208
     atom   12 type  2   force =     0.00002914    0.00006074    0.00002403
     atom   13 type  2   force =    -0.00000893    0.00000964   -0.00003673
     atom   14 type  2   force =    -0.00005623    0.00003580   -0.00000057
     atom   15 type  2   force =    -0.00000857    0.00000580    0.00004897
     atom   16 type  2   force =     0.00000485   -0.00001244    0.00000714
     atom   17 type  2   force =    -0.00003400    0.00006839    0.00003519
     atom   18 type  2   force =     0.00002054   -0.00000382   -0.00002122
     atom   19 type  2   force =    -0.00001068   -0.00000916    0.00000913
     atom   20 type  2   force =     0.00000479   -0.00007414    0.00000742
     atom   21 type  2   force =     0.00006784    0.00000258    0.00000115
     atom   22 type  2   force =     0.00001568   -0.00003082    0.00001859
     atom   23 type  2   force =     0.00006635    0.00000983    0.00004297
     atom   24 type  2   force =     0.00002557    0.00001964   -0.00000014
     atom   25 type  2   force =     0.00001155   -0.00003033    0.00003636
     atom   26 type  2   force =    -0.00003381   -0.00003751    0.00000987
     atom   27 type  2   force =     0.00004453    0.00004408   -0.00001457
     atom   28 type  2   force =    -0.00003473   -0.00000371   -0.00003325
     atom   29 type  2   force =     0.00001000   -0.00005006    0.00001453
     atom   30 type  2   force =    -0.00001856    0.00004750    0.00003969
     atom   31 type  2   force =     0.00002380   -0.00002113    0.00001390
     atom   32 type  2   force =     0.00004711    0.00005477    0.00004072
     atom   33 type  3   force =     0.00002384    0.00004935   -0.00003656
     atom   34 type  3   force =    -0.00003273   -0.00001098    0.00002891
     atom   35 type  3   force =     0.00005010    0.00007545    0.00001947
     atom   36 type  3   force =    -0.00000038    0.00001990   -0.00001121
     atom   37 type  3   force =     0.00002205    0.00002818   -0.00000167
     atom   38 type  3   force =     0.00003653    0.00000436   -0.00001373
     atom   39 type  3   force =     0.00003341   -0.00002569   -0.00001588
     atom   40 type  3   force =     0.00002754    0.00000749   -0.00001440
     atom   41 type  4   force =     0.00005627    0.00004962    0.00004727
     atom   42 type  4   force =     0.00001872   -0.00002480   -0.00003112
     atom   43 type  4   force =     0.00004043    0.00003304   -0.00004566
     atom   44 type  4   force =    -0.00000418    0.00000096   -0.00000942
     atom   45 type  4   force =     0.00004439    0.00002075   -0.00001608
     atom   46 type  4   force =     0.00000878    0.00008295    0.00000003
     atom   47 type  4   force =    -0.00003673    0.00004821    0.00004017
     atom   48 type  4   force =    -0.00001612   -0.00001739    0.00000170
     atom   49 type  5   force =     0.00000646   -0.00005077   -0.00002081
     atom   50 type  5   force =    -0.00000324   -0.00004442   -0.00006872
     atom   51 type  5   force =    -0.00009737    0.00009190    0.00001957
     atom   52 type  5   force =    -0.00001475    0.00000560   -0.00004736
     atom   53 type  5   force =     0.00000362   -0.00002509    0.00007081
     atom   54 type  5   force =    -0.00004263   -0.00007117    0.00002986
     atom   55 type  5   force =     0.00000237    0.00002801   -0.00003275
     atom   56 type  5   force =     0.00000830   -0.00002770   -0.00000588
     atom   57 type  5   force =     0.00000169    0.00002024    0.00002433
     atom   58 type  5   force =     0.00000883   -0.00001597    0.00002291
     atom   59 type  5   force =    -0.00002100    0.00003046    0.00000853
     atom   60 type  5   force =    -0.00001023   -0.00001680   -0.00000040
     atom   61 type  5   force =    -0.00000191   -0.00000012    0.00002620
     atom   62 type  5   force =     0.00001481   -0.00006876   -0.00001964
     atom   63 type  5   force =    -0.00002535   -0.00001214   -0.00002309
     atom   64 type  5   force =    -0.00003215    0.00001477   -0.00008754
     atom   65 type  5   force =     0.00000446   -0.00004012    0.00000691
     atom   66 type  5   force =    -0.00003594   -0.00000922    0.00008720
     atom   67 type  5   force =    -0.00001444   -0.00000591   -0.00003460
     atom   68 type  5   force =     0.00002631   -0.00000923   -0.00002524
     atom   69 type  5   force =    -0.00002101    0.00000133    0.00002919
     atom   70 type  5   force =    -0.00002427    0.00001400   -0.00003022
     atom   71 type  5   force =    -0.00001125   -0.00001457   -0.00000163
     atom   72 type  5   force =     0.00000846   -0.00002303    0.00003485
     atom   73 type  5   force =    -0.00002590    0.00002265   -0.00000698
     atom   74 type  5   force =     0.00004087   -0.00006530   -0.00000809
     atom   75 type  5   force =    -0.00002495    0.00002152   -0.00001007
     atom   76 type  5   force =     0.00000057   -0.00000364   -0.00004006
     atom   77 type  5   force =    -0.00001140   -0.00000234   -0.00000225
     atom   78 type  5   force =    -0.00001429    0.00000121    0.00002347
     atom   79 type  5   force =     0.00001939   -0.00004388    0.00001964
     atom   80 type  5   force =     0.00002345   -0.00005697   -0.00005058
     atom   81 type  5   force =    -0.00004909    0.00008785   -0.00002273
     atom   82 type  5   force =    -0.00000717    0.00000485   -0.00002982
     atom   83 type  5   force =    -0.00002183   -0.00001494    0.00003472
     atom   84 type  5   force =    -0.00001726   -0.00007905    0.00000673
     atom   85 type  5   force =     0.00001802   -0.00006208   -0.00003560
     atom   86 type  5   force =     0.00000196   -0.00004291   -0.00003443
     atom   87 type  5   force =     0.00000775    0.00005904    0.00000626
     atom   88 type  5   force =    -0.00002771    0.00003974   -0.00000305
     atom   89 type  5   force =    -0.00000761   -0.00001771    0.00004528
     atom   90 type  5   force =    -0.00002645   -0.00006591    0.00004854
     atom   91 type  5   force =     0.00001543   -0.00001637   -0.00008863
     atom   92 type  5   force =     0.00001109   -0.00003630   -0.00002843
     atom   93 type  5   force =    -0.00000768   -0.00000368    0.00003533
     atom   94 type  5   force =    -0.00000479    0.00001114   -0.00003330
     atom   95 type  5   force =     0.00001623   -0.00000892   -0.00000927
     atom   96 type  5   force =    -0.00002476    0.00000442    0.00005298

     Total force =     0.000561     Total SCF correction =     0.000069
     SCF correction compared to forces is large: reduce conv_thr to get better values


     Computing stress (Cartesian axis) and pressure

          total   stress  (Ry/bohr**3)                   (kbar)     P=   -0.00
  -0.00000006   0.00000597   0.00000109         -0.01      0.88      0.16
   0.00000597  -0.00000012  -0.00000076          0.88     -0.02     -0.11
   0.00000109  -0.00000076   0.00000015          0.16     -0.11      0.02


     Writing output data file MAPbI_vcrelax_PAW14.save/

     init_run     :   1576.65s CPU   1594.36s WALL (       2 calls)
     electrons    : 256719.95s CPU 260541.40s WALL (      18 calls)
     update_pot   :   1788.14s CPU   1798.44s WALL (      16 calls)
     forces       :   9810.90s CPU   9929.00s WALL (      18 calls)
     stress       :  13384.91s CPU  13575.28s WALL (      18 calls)

     Called by init_run:
     wfcinit      :   1413.47s CPU   1429.79s WALL (       2 calls)
     potinit      :     49.22s CPU     49.49s WALL (       2 calls)
     hinit0       :     80.28s CPU     80.70s WALL (       2 calls)

     Called by electrons:
     c_bands      : 233666.51s CPU 237084.61s WALL (     147 calls)
     sum_band     :  22448.91s CPU  22806.63s WALL (     147 calls)
     v_of_rho     :    108.31s CPU    112.80s WALL (     149 calls)
     newd         :    281.01s CPU    322.49s WALL (     149 calls)
     PAW_pot      :    149.82s CPU    150.57s WALL (     165 calls)
     mix_rho      :     13.01s CPU     15.07s WALL (     147 calls)

     Called by c_bands:
     init_us_2    :    388.73s CPU    428.07s WALL (    2784 calls)
     cegterg      : 229659.11s CPU 232996.17s WALL (    1176 calls)

     Called by sum_band:
     sum_band:bec :      8.03s CPU      8.16s WALL (    1304 calls)
     addusdens    :    258.11s CPU    300.51s WALL (     147 calls)

     Called by *egterg:
     h_psi        : 113399.95s CPU 115276.80s WALL (    4447 calls)
     s_psi        :  43963.03s CPU  44232.44s WALL (    4447 calls)
     g_psi        :     61.12s CPU     62.94s WALL (    3255 calls)
     cdiaghg      :   1557.98s CPU   1569.44s WALL (    4175 calls)

     Called by h_psi:
     h_psi:pot    : 113319.48s CPU 115009.88s WALL (    4447 calls)
     h_psi:calbec :  45275.22s CPU  45680.74s WALL (    4447 calls)
     vloc_psi     :  24066.30s CPU  25061.64s WALL (    4447 calls)
     add_vuspsi   :  43977.86s CPU  44267.44s WALL (    4447 calls)

     General routines
     calbec       :  74447.83s CPU  75073.90s WALL (    6471 calls)
     fft          :    109.08s CPU    116.13s WALL (    2121 calls)
     ffts         :      5.86s CPU      6.29s WALL (     147 calls)
     fftw         :  25641.89s CPU  26766.75s WALL ( 1496986 calls)

     Parallel routines
     fft_scatt_xy :   4087.32s CPU   4132.89s WALL ( 1499254 calls)
     fft_scatt_yz :   5345.05s CPU   6280.06s WALL ( 1499254 calls)

     PWSCF        :   3d 7h13m CPU   3d 8h23m WALL


   This run was terminated on:   6:43:39   6May2020            

=------------------------------------------------------------------------------=
   JOB DONE.
=------------------------------------------------------------------------------=
