
     Program PWSCF v.6.4 starts on 22Jan2020 at 15:43:58 

     This program is part of the open-source Quantum ESPRESSO suite
     for quantum simulation of materials; please cite
         "P. Giannozzi et al., J. Phys.:Condens. Matter 21 395502 (2009);
         "P. Giannozzi et al., J. Phys.:Condens. Matter 29 465901 (2017);
          URL http://www.quantum-espresso.org", 
     in publications or presentations arising from this work. More details at
     http://www.quantum-espresso.org/quote

     Parallel version (MPI), running on    48 processors

     MPI processes distributed on     1 nodes
     K-points division:     npool     =       4
     R & G space division:  proc/nbgrp/npool/nimage =      12
     Waiting for input...
     Reading input from standard input
     Message from routine read_cards :
     DEPRECATED: no units specified in CELL_PARAMETERS card

     Current dimensions of program PWSCF are:
     Max number of different atomic species (ntypx) = 10
     Max number of k-points (npk) =  40000
     Max angular momentum in pseudopotentials (lmaxx) =  3
               file Pb.pbe-dn-kjpaw_psl.1.0.0.UPF: wavefunction(s)  6S 6P 5D renormalized
               file I.pbe-n-kjpaw_psl.1.0.0.UPF: wavefunction(s)  5S renormalized
               file C.pbe-n-kjpaw_psl.1.0.0.UPF: wavefunction(s)  2S 2P renormalized
               file N.pbe-n-kjpaw_psl.1.0.0.UPF: wavefunction(s)  2S renormalized
               file H.pbe-kjpaw_psl.1.0.0.UPF: wavefunction(s)  1S renormalized

     --------------------------------------------
     Parameters for DFT-D3 Dispersion Correction:
     --------------------------------------------
       Reference C6 values for interpolation: 

         atom   Coordination number   C6
         H          0.912             6.05
         H          0.000            15.18
         C          0.000            98.23
         C          0.987            86.49
         C          1.998            58.72
         C          2.999            51.56
         C          3.984            36.41
         N          0.000            50.54
         N          0.994            44.25
         N          2.014            39.35
         N          2.990            31.16
         I          0.000           703.93
         I          0.997           717.00
         Pb         0.000          1477.63
         Pb         0.938          1266.00
         Pb         1.936          1088.91
         Pb         2.908          1048.37
         Pb         3.910           910.57

       Values used:

         atom   Coordination number  R0_AB[au]  C6      C8
         Pb         5.065            4.041    910.57 144158.15
         Pb         5.059            4.041    910.57 144158.15
         Pb         5.071            4.041    910.57 144158.15
         Pb         5.063            4.041    910.57 144158.15
         Pb         5.055            4.041    910.57 144158.15
         Pb         5.088            4.041    910.57 144158.15
         Pb         5.065            4.041    910.57 144158.15
         Pb         5.056            4.041    910.57 144158.15
         I          1.991            3.532    717.00  65856.00
         I          1.977            3.532    717.00  65856.00
         I          2.058            3.532    717.00  65856.00
         I          1.987            3.532    717.00  65856.00
         I          1.984            3.532    717.00  65856.00
         I          2.069            3.532    717.00  65856.00
         I          2.001            3.532    717.00  65856.00
         I          2.034            3.532    717.00  65856.00
         I          2.053            3.532    717.00  65856.00
         I          1.972            3.532    717.00  65856.00
         I          2.016            3.532    717.00  65856.00
         I          2.089            3.532    717.00  65856.00
         I          1.997            3.532    717.00  65856.00
         I          1.996            3.532    717.00  65856.00
         I          2.069            3.532    717.00  65856.00
         I          2.011            3.532    717.00  65856.00
         I          2.032            3.532    717.00  65856.00
         I          2.067            3.532    717.00  65856.00
         I          1.998            3.532    717.00  65856.00
         I          2.019            3.532    717.00  65856.00
         I          2.040            3.532    717.00  65856.00
         I          2.016            3.532    717.00  65856.00
         I          1.970            3.532    717.00  65856.00
         I          2.098            3.532    717.00  65856.00
         C          4.023            2.750     36.61   1058.89
         C          4.027            2.750     36.61   1058.74
         C          4.023            2.750     36.61   1058.87
         C          4.027            2.750     36.61   1058.74
         C          4.024            2.750     36.61   1058.84
         C          4.025            2.750     36.61   1058.83
         C          4.024            2.750     36.61   1058.86
         C          4.026            2.750     36.61   1058.74
         N          4.034            2.478     31.16    687.49
         N          4.034            2.478     31.16    687.49
         N          4.034            2.478     31.16    687.49
         N          4.037            2.478     31.16    687.49
         N          4.034            2.478     31.16    687.49
         N          4.035            2.478     31.16    687.49
         N          4.036            2.478     31.16    687.49
         N          4.039            2.478     31.16    687.49
         H          1.020            2.062      6.16     74.52
         H          1.021            2.062      6.16     74.51
         H          1.019            2.062      6.16     74.52
         H          1.007            2.062      6.17     74.65
         H          1.010            2.062      6.17     74.61
         H          1.008            2.062      6.17     74.63
         H          1.022            2.062      6.16     74.50
         H          1.018            2.062      6.17     74.53
         H          1.020            2.062      6.16     74.51
         H          1.009            2.062      6.17     74.62
         H          1.009            2.062      6.17     74.62
         H          1.008            2.062      6.17     74.63
         H          1.021            2.062      6.16     74.50
         H          1.018            2.062      6.17     74.53
         H          1.024            2.062      6.16     74.47
         H          1.008            2.062      6.17     74.63
         H          1.007            2.062      6.17     74.64
         H          1.009            2.062      6.17     74.62
         H          1.021            2.062      6.16     74.50
         H          1.021            2.062      6.16     74.50
         H          1.020            2.062      6.16     74.51
         H          1.009            2.062      6.17     74.63
         H          1.010            2.062      6.17     74.61
         H          1.010            2.062      6.17     74.62
         H          1.021            2.062      6.16     74.50
         H          1.017            2.062      6.17     74.54
         H          1.019            2.062      6.16     74.52
         H          1.008            2.062      6.17     74.63
         H          1.007            2.062      6.17     74.64
         H          1.010            2.062      6.17     74.61
         H          1.020            2.062      6.16     74.51
         H          1.023            2.062      6.16     74.49
         H          1.018            2.062      6.17     74.53
         H          1.008            2.062      6.17     74.63
         H          1.009            2.062      6.17     74.62
         H          1.009            2.062      6.17     74.62
         H          1.020            2.062      6.16     74.51
         H          1.019            2.062      6.16     74.52
         H          1.019            2.062      6.16     74.52
         H          1.008            2.062      6.17     74.63
         H          1.009            2.062      6.17     74.62
         H          1.008            2.062      6.17     74.64
         H          1.021            2.062      6.16     74.50
         H          1.023            2.062      6.16     74.49
         H          1.025            2.062      6.16     74.46
         H          1.008            2.062      6.17     74.63
         H          1.009            2.062      6.17     74.62
         H          1.008            2.062      6.17     74.63

         Molecular C6 ( Ry / a.u.^6 ) =   1196717.42


     Subspace diagonalization in iterative solution of the eigenvalue problem:
     a serial algorithm will be used


     Parallelization info
     --------------------
     sticks:   dense  smooth     PW     G-vecs:    dense   smooth      PW
     Min        1830    1830    471               201330   201330   26362
     Max        1831    1831    473               201333   201333   26364
     Sum       21961   21961   5669              2415977  2415977  316359



     bravais-lattice index     =            0
     lattice parameter (alat)  =      24.1526  a.u.
     unit-cell volume          =   13603.9987 (a.u.)^3
     number of atoms/cell      =           96
     number of atomic types    =            5
     number of electrons       =       400.00
     number of Kohn-Sham states=          200
     kinetic-energy cutoff     =     120.0000  Ry
     charge density cutoff     =     480.0000  Ry
     convergence threshold     =      1.0E-07
     mixing beta               =       0.7000
     number of iterations used =            8  plain     mixing
     Exchange-correlation      = SLA PW PBX PBC ( 1  4  3  4 0 0)
     nstep                     =          150


     celldm(1)=  24.152590  celldm(2)=   0.000000  celldm(3)=   0.000000
     celldm(4)=   0.000000  celldm(5)=   0.000000  celldm(6)=   0.000000

     crystal axes: (cart. coord. in units of alat)
               a(1) = (   0.992931   0.000000   0.000000 )  
               a(2) = (   0.000000   0.992453   0.000000 )  
               a(3) = (   0.000000   0.000000   0.979820 )  

     reciprocal axes: (cart. coord. in units 2 pi/alat)
               b(1) = (  1.007120  0.000000  0.000000 )  
               b(2) = (  0.000000  1.007604  0.000000 )  
               b(3) = (  0.000000  0.000000  1.020595 )  


     PseudoPot. # 1 for Pb read from file:
     ../Pseudopotential/Pb.pbe-dn-kjpaw_psl.1.0.0.UPF
     MD5 check sum: 684fc8fbce61a260853528575e4d9ab7
     Pseudo is Projector augmented-wave + core cor, Zval = 14.0
     Generated using "atomic" code by A. Dal Corso v.6.3
     Shape of augmentation charge: PSQ
     Using radial grid of 1281 points,  6 beta functions with: 
                l(1) =   0
                l(2) =   0
                l(3) =   1
                l(4) =   1
                l(5) =   2
                l(6) =   2
     Q(r) pseudized with 0 coefficients 


     PseudoPot. # 2 for I  read from file:
     ../Pseudopotential/I.pbe-n-kjpaw_psl.1.0.0.UPF
     MD5 check sum: cd3d296c3308a581e1559a0c8a554cb5
     Pseudo is Projector augmented-wave + core cor, Zval =  7.0
     Generated using "atomic" code by A. Dal Corso v.6.3
     Shape of augmentation charge: PSQ
     Using radial grid of 1247 points,  6 beta functions with: 
                l(1) =   0
                l(2) =   0
                l(3) =   1
                l(4) =   1
                l(5) =   2
                l(6) =   2
     Q(r) pseudized with 0 coefficients 


     PseudoPot. # 3 for C  read from file:
     ../Pseudopotential/C.pbe-n-kjpaw_psl.1.0.0.UPF
     MD5 check sum: 5f16ad9a65e90284d1d834d4ab3b0f7d
     Pseudo is Projector augmented-wave + core cor, Zval =  4.0
     Generated using "atomic" code by A. Dal Corso v.6.3
     Shape of augmentation charge: PSQ
     Using radial grid of 1073 points,  4 beta functions with: 
                l(1) =   0
                l(2) =   0
                l(3) =   1
                l(4) =   1
     Q(r) pseudized with 0 coefficients 


     PseudoPot. # 4 for N  read from file:
     ../Pseudopotential/N.pbe-n-kjpaw_psl.1.0.0.UPF
     MD5 check sum: 14c48229446f9f2d411169a3abcbc3fa
     Pseudo is Projector augmented-wave + core cor, Zval =  5.0
     Generated using "atomic" code by A. Dal Corso v.6.3
     Shape of augmentation charge: PSQ
     Using radial grid of 1085 points,  4 beta functions with: 
                l(1) =   0
                l(2) =   0
                l(3) =   1
                l(4) =   1
     Q(r) pseudized with 0 coefficients 


     PseudoPot. # 5 for H  read from file:
     ../Pseudopotential/H.pbe-kjpaw_psl.1.0.0.UPF
     MD5 check sum: d81a744832360e4a8af0b0b5b123bc2a
     Pseudo is Projector augmented-wave, Zval =  1.0
     Generated using "atomic" code by A. Dal Corso v.6.3MaX
     Shape of augmentation charge: PSQ
     Using radial grid of  929 points,  2 beta functions with: 
                l(1) =   0
                l(2) =   0
     Q(r) pseudized with 0 coefficients 


     atomic species   valence    mass     pseudopotential
        Pb            14.00   207.97600     Pb( 1.00)
        I              7.00   126.90400     I ( 1.00)
        C              4.00    12.00000     C ( 1.00)
        N              5.00    14.00300     N ( 1.00)
        H              1.00     1.00700     H ( 1.00)

     No symmetry found



   Cartesian axes

     site n.     atom                  positions (alat units)
         1           Pb  tau(   1) = (   0.0005149  -0.0033873   0.0009530  )
         2           Pb  tau(   2) = (  -0.0015147  -0.0043082   0.4912289  )
         3           Pb  tau(   3) = (  -0.0016338   0.4956394   0.0004091  )
         4           Pb  tau(   4) = (  -0.0054637   0.4936787   0.4917879  )
         5           Pb  tau(   5) = (   0.4968878  -0.0072512   0.0032699  )
         6           Pb  tau(   6) = (   0.4972088   0.0013578   0.4919797  )
         7           Pb  tau(   7) = (   0.4941266   0.4899468  -0.0038950  )
         8           Pb  tau(   8) = (   0.4940631   0.4954372   0.4881683  )
         9           I   tau(   9) = (   0.2496543   0.0134598  -0.0025906  )
        10           I   tau(  10) = (   0.0116909   0.2479941   0.0006782  )
        11           I   tau(  11) = (   0.0004162   0.0055783   0.2441823  )
        12           I   tau(  12) = (   0.2467535   0.0083939   0.4911771  )
        13           I   tau(  13) = (   0.0179151   0.2467190   0.4918481  )
        14           I   tau(  14) = (  -0.0036985   0.0067829   0.7355111  )
        15           I   tau(  15) = (   0.2485028   0.5134706  -0.0003886  )
        16           I   tau(  16) = (   0.0091773   0.7432866  -0.0054729  )
        17           I   tau(  17) = (   0.0089659   0.4922672   0.2457328  )
        18           I   tau(  18) = (   0.2475205   0.5147554   0.4883235  )
        19           I   tau(  19) = (   0.0104223   0.7436152   0.4870908  )
        20           I   tau(  20) = (  -0.0035894   0.5038962   0.7349815  )
        21           I   tau(  21) = (   0.7450238   0.0158860   0.0015040  )
        22           I   tau(  22) = (   0.5093520   0.2467000  -0.0040606  )
        23           I   tau(  23) = (   0.4997538   0.0022417   0.2458214  )
        24           I   tau(  24) = (   0.7432247   0.0180323   0.4883549  )
        25           I   tau(  25) = (   0.5023950   0.2470930   0.4904413  )
        26           I   tau(  26) = (   0.4926296   0.0093801   0.7360636  )
        27           I   tau(  27) = (   0.7444321   0.5140309  -0.0064410  )
        28           I   tau(  28) = (   0.5063496   0.7419153  -0.0046490  )
        29           I   tau(  29) = (   0.5027070   0.4981777   0.2433273  )
        30           I   tau(  30) = (   0.7454668   0.5049647   0.4860250  )
        31           I   tau(  31) = (   0.5114174   0.7442964   0.4912339  )
        32           I   tau(  32) = (   0.4950842   0.4995374   0.7329237  )
        33           C   tau(  33) = (   0.2874463   0.2882697   0.2461792  )
        34           C   tau(  34) = (   0.2857075   0.2891571   0.7341189  )
        35           C   tau(  35) = (   0.2898257   0.7816176   0.2433254  )
        36           C   tau(  36) = (   0.2891827   0.7806875   0.7389252  )
        37           C   tau(  37) = (   0.7854199   0.2879899   0.2438752  )
        38           C   tau(  38) = (   0.7830346   0.2890058   0.7376546  )
        39           C   tau(  39) = (   0.7854385   0.7811561   0.2456300  )
        40           C   tau(  40) = (   0.7793048   0.7835389   0.7347525  )
        41           N   tau(  41) = (   0.2046257   0.2039046   0.2488162  )
        42           N   tau(  42) = (   0.2041856   0.2034659   0.7355664  )
        43           N   tau(  43) = (   0.2058518   0.6984662   0.2474637  )
        44           N   tau(  44) = (   0.2033405   0.7000586   0.7362267  )
        45           N   tau(  45) = (   0.7031107   0.2028217   0.2439997  )
        46           N   tau(  46) = (   0.7013481   0.2033067   0.7372636  )
        47           N   tau(  47) = (   0.6993203   0.6999502   0.2463484  )
        48           N   tau(  48) = (   0.6972582   0.6994386   0.7374049  )
        49           H   tau(  49) = (   0.1831209   0.1799937   0.1745568  )
        50           H   tau(  50) = (   0.1370249   0.2267725   0.2869930  )
        51           H   tau(  51) = (   0.2293382   0.1386052   0.2896661  )
        52           H   tau(  52) = (   0.3088101   0.3050233   0.1647303  )
        53           H   tau(  53) = (   0.3546431   0.2609737   0.2919320  )
        54           H   tau(  54) = (   0.2548926   0.3587781   0.2821866  )
        55           H   tau(  55) = (   0.1838351   0.1790931   0.6609369  )
        56           H   tau(  56) = (   0.1358310   0.2269095   0.7722836  )
        57           H   tau(  57) = (   0.2309470   0.1387569   0.7761897  )
        58           H   tau(  58) = (   0.3046097   0.3073969   0.6528112  )
        59           H   tau(  59) = (   0.3566704   0.2622974   0.7737133  )
        60           H   tau(  60) = (   0.2550743   0.3579741   0.7747801  )
        61           H   tau(  61) = (   0.1850503   0.6724044   0.1737869  )
        62           H   tau(  62) = (   0.1376443   0.7252931   0.2818560  )
        63           H   tau(  63) = (   0.2281182   0.6339962   0.2915665  )
        64           H   tau(  64) = (   0.3010044   0.8065257   0.1621401  )
        65           H   tau(  65) = (   0.3626482   0.7505591   0.2762299  )
        66           H   tau(  66) = (   0.2632174   0.8482104   0.2900609  )
        67           H   tau(  67) = (   0.1809367   0.6806372   0.6612057  )
        68           H   tau(  68) = (   0.1372706   0.7241583   0.7759829  )
        69           H   tau(  69) = (   0.2253414   0.6307192   0.7708569  )
        70           H   tau(  70) = (   0.3061262   0.8044433   0.6585831  )
        71           H   tau(  71) = (   0.3593485   0.7456537   0.7731926  )
        72           H   tau(  72) = (   0.2627755   0.8482634   0.7843866  )
        73           H   tau(  73) = (   0.6780841   0.1842965   0.1692513  )
        74           H   tau(  74) = (   0.6374768   0.2239856   0.2864688  )
        75           H   tau(  75) = (   0.7296942   0.1345426   0.2780274  )
        76           H   tau(  76) = (   0.8003133   0.3110617   0.1628121  )
        77           H   tau(  77) = (   0.8574809   0.2581493   0.2797025  )
        78           H   tau(  78) = (   0.7557061   0.3541520   0.2895634  )
        79           H   tau(  79) = (   0.6783812   0.1853599   0.6617010  )
        80           H   tau(  80) = (   0.6349030   0.2229063   0.7792206  )
        81           H   tau(  81) = (   0.7269575   0.1346765   0.7716595  )
        82           H   tau(  82) = (   0.8050402   0.3053559   0.6565241  )
        83           H   tau(  83) = (   0.8513778   0.2610100   0.7811514  )
        84           H   tau(  84) = (   0.7505044   0.3592176   0.7745728  )
        85           H   tau(  85) = (   0.6768180   0.6822441   0.1708946  )
        86           H   tau(  86) = (   0.6329607   0.7240951   0.2859207  )
        87           H   tau(  87) = (   0.7208753   0.6299738   0.2809008  )
        88           H   tau(  88) = (   0.8048499   0.7969174   0.1640365  )
        89           H   tau(  89) = (   0.8535218   0.7499202   0.2869195  )
        90           H   tau(  90) = (   0.7578948   0.8526000   0.2838112  )
        91           H   tau(  91) = (   0.6735039   0.6761927   0.6635822  )
        92           H   tau(  92) = (   0.6303585   0.7221373   0.7764874  )
        93           H   tau(  93) = (   0.7230362   0.6337581   0.7767132  )
        94           H   tau(  94) = (   0.7952797   0.8034472   0.6534711  )
        95           H   tau(  95) = (   0.8508961   0.7543177   0.7712486  )
        96           H   tau(  96) = (   0.7506899   0.8523585   0.7765200  )

     number of k points=    32
                       cart. coord. in units 2pi/alat
        k(    1) = (   0.1258900   0.1259505   0.1275744), wk =   0.0625000
        k(    2) = (   0.1258900   0.1259505   0.3827232), wk =   0.0625000
        k(    3) = (   0.1258900   0.3778516   0.1275744), wk =   0.0625000
        k(    4) = (   0.1258900   0.3778516   0.3827232), wk =   0.0625000
        k(    5) = (   0.3776699   0.1259505   0.1275744), wk =   0.0625000
        k(    6) = (   0.3776699   0.1259505   0.3827232), wk =   0.0625000
        k(    7) = (   0.3776699   0.3778516   0.1275744), wk =   0.0625000
        k(    8) = (   0.3776699   0.3778516   0.3827232), wk =   0.0625000
        k(    9) = (  -0.1258900  -0.1259505   0.1275744), wk =   0.0625000
        k(   10) = (  -0.1258900   0.1259505  -0.1275744), wk =   0.0625000
        k(   11) = (   0.1258900  -0.1259505  -0.1275744), wk =   0.0625000
        k(   12) = (  -0.1258900  -0.1259505   0.3827232), wk =   0.0625000
        k(   13) = (  -0.1258900   0.1259505  -0.3827232), wk =   0.0625000
        k(   14) = (   0.1258900  -0.1259505  -0.3827232), wk =   0.0625000
        k(   15) = (  -0.1258900  -0.3778516   0.1275744), wk =   0.0625000
        k(   16) = (  -0.1258900   0.3778516  -0.1275744), wk =   0.0625000
        k(   17) = (   0.1258900  -0.3778516  -0.1275744), wk =   0.0625000
        k(   18) = (  -0.1258900  -0.3778516   0.3827232), wk =   0.0625000
        k(   19) = (  -0.1258900   0.3778516  -0.3827232), wk =   0.0625000
        k(   20) = (   0.1258900  -0.3778516  -0.3827232), wk =   0.0625000
        k(   21) = (  -0.3776699  -0.1259505   0.1275744), wk =   0.0625000
        k(   22) = (  -0.3776699   0.1259505  -0.1275744), wk =   0.0625000
        k(   23) = (   0.3776699  -0.1259505  -0.1275744), wk =   0.0625000
        k(   24) = (  -0.3776699  -0.1259505   0.3827232), wk =   0.0625000
        k(   25) = (  -0.3776699   0.1259505  -0.3827232), wk =   0.0625000
        k(   26) = (   0.3776699  -0.1259505  -0.3827232), wk =   0.0625000
        k(   27) = (  -0.3776699  -0.3778516   0.1275744), wk =   0.0625000
        k(   28) = (  -0.3776699   0.3778516  -0.1275744), wk =   0.0625000
        k(   29) = (   0.3776699  -0.3778516  -0.1275744), wk =   0.0625000
        k(   30) = (  -0.3776699  -0.3778516   0.3827232), wk =   0.0625000
        k(   31) = (  -0.3776699   0.3778516  -0.3827232), wk =   0.0625000
        k(   32) = (   0.3776699  -0.3778516  -0.3827232), wk =   0.0625000

     Dense  grid:  2415977 G-vectors     FFT dimensions: ( 180, 180, 180)

     Estimated max dynamical RAM per process >       2.11 GB

     Estimated total dynamical RAM >     101.29 GB

     Initial potential from superposition of free atoms

     starting charge  399.97850, renormalised to  400.00000
     Starting wfcs are  280 randomized atomic wfcs
     Checking if some PAW data can be deallocated... 

     total cpu time spent up to now is      490.4 secs

     Self-consistent Calculation

     iteration #  1     ecut=   120.00 Ry     beta= 0.70
     Davidson diagonalization with overlap
     ethr =  1.00E-02,  avg # of iterations =  2.0

     total cpu time spent up to now is     1344.6 secs

     total energy              =  -16489.30702718 Ry
     Harris-Foulkes estimate   =  -16492.59014328 Ry
     estimated scf accuracy    <       5.63849736 Ry

     iteration #  2     ecut=   120.00 Ry     beta= 0.70
     Davidson diagonalization with overlap
     ethr =  1.41E-03,  avg # of iterations =  3.0

     total cpu time spent up to now is     2506.2 secs

     total energy              =  -16490.52582067 Ry
     Harris-Foulkes estimate   =  -16491.63288277 Ry
     estimated scf accuracy    <       1.96261008 Ry

     iteration #  3     ecut=   120.00 Ry     beta= 0.70
     Davidson diagonalization with overlap
     ethr =  4.91E-04,  avg # of iterations =  3.0

     total cpu time spent up to now is     3444.0 secs

     total energy              =  -16490.98620407 Ry
     Harris-Foulkes estimate   =  -16491.03112651 Ry
     estimated scf accuracy    <       0.10318381 Ry

     iteration #  4     ecut=   120.00 Ry     beta= 0.70
     Davidson diagonalization with overlap
     ethr =  2.58E-05,  avg # of iterations =  3.0

     total cpu time spent up to now is     4634.2 secs

     total energy              =  -16491.01222521 Ry
     Harris-Foulkes estimate   =  -16491.02311857 Ry
     estimated scf accuracy    <       0.02011516 Ry

     iteration #  5     ecut=   120.00 Ry     beta= 0.70
     Davidson diagonalization with overlap
     ethr =  5.03E-06,  avg # of iterations =  2.0

     total cpu time spent up to now is     5669.5 secs

     total energy              =  -16491.01620958 Ry
     Harris-Foulkes estimate   =  -16491.01667035 Ry
     estimated scf accuracy    <       0.00084778 Ry

     iteration #  6     ecut=   120.00 Ry     beta= 0.70
     Davidson diagonalization with overlap
     ethr =  2.12E-07,  avg # of iterations =  3.3

     total cpu time spent up to now is     6963.4 secs

     total energy              =  -16491.01642482 Ry
     Harris-Foulkes estimate   =  -16491.01687783 Ry
     estimated scf accuracy    <       0.00107271 Ry

     iteration #  7     ecut=   120.00 Ry     beta= 0.70
     Davidson diagonalization with overlap
     ethr =  2.12E-07,  avg # of iterations =  2.9

     total cpu time spent up to now is     7894.3 secs

     total energy              =  -16491.01663867 Ry
     Harris-Foulkes estimate   =  -16491.01665152 Ry
     estimated scf accuracy    <       0.00003382 Ry

     iteration #  8     ecut=   120.00 Ry     beta= 0.70
     Davidson diagonalization with overlap
     ethr =  8.46E-09,  avg # of iterations =  3.0

     total cpu time spent up to now is     9077.4 secs

     total energy              =  -16491.01664961 Ry
     Harris-Foulkes estimate   =  -16491.01665227 Ry
     estimated scf accuracy    <       0.00000631 Ry

     iteration #  9     ecut=   120.00 Ry     beta= 0.70
     Davidson diagonalization with overlap
     ethr =  1.58E-09,  avg # of iterations =  3.0

     total cpu time spent up to now is    10112.4 secs

     total energy              =  -16491.01665092 Ry
     Harris-Foulkes estimate   =  -16491.01665168 Ry
     estimated scf accuracy    <       0.00000161 Ry

     iteration # 10     ecut=   120.00 Ry     beta= 0.70
     Davidson diagonalization with overlap
     ethr =  4.04E-10,  avg # of iterations =  3.3

     total cpu time spent up to now is    11100.7 secs

     total energy              =  -16491.01665132 Ry
     Harris-Foulkes estimate   =  -16491.01665143 Ry
     estimated scf accuracy    <       0.00000027 Ry

     iteration # 11     ecut=   120.00 Ry     beta= 0.70
     Davidson diagonalization with overlap
     ethr =  6.70E-11,  avg # of iterations =  3.0

     total cpu time spent up to now is    12081.2 secs

     End of self-consistent calculation

          k = 0.1259 0.1260 0.1276 (301955 PWs)   bands (ev):

   -17.8244 -17.8074 -17.8054 -17.7721 -17.7592 -17.7570 -17.7366 -17.7321
   -14.1825 -14.1742 -14.1712 -14.1678 -14.1661 -14.1647 -14.1627 -14.1587
   -14.1575 -14.1558 -14.1514 -14.1505 -14.1495 -14.1461 -14.1459 -14.1445
   -14.1283 -14.1264 -14.1220 -14.1212 -14.1208 -14.1148 -14.1143 -14.1112
   -14.1103 -14.1088 -14.1088 -14.1077 -14.1073 -14.1062 -14.1055 -14.1036
   -14.1032 -14.1032 -14.1031 -14.1029 -14.1008 -14.0999 -14.0984 -14.0980
   -10.7855 -10.7624 -10.7487 -10.7364 -10.7277 -10.7182 -10.7137 -10.6974
    -9.7503  -9.5603  -9.5500  -9.5372  -9.3673  -9.3485  -9.3313  -9.2573
    -9.2387  -9.2289  -9.2199  -9.2078  -9.2040  -9.1998  -9.1942  -9.1870
    -9.1754  -9.1663  -9.1426  -8.9887  -8.9835  -8.9723  -8.9689  -8.9603
    -7.2587  -7.2505  -7.2476  -7.2407  -7.2308  -7.2179  -7.2151  -7.1801
    -7.1539  -7.1479  -7.1392  -7.1328  -7.1192  -7.0927  -7.0594  -7.0406
    -5.9701  -5.4783  -5.4644  -5.3927  -5.1549  -5.1282  -5.1229  -5.1103
    -5.0851  -5.0779  -5.0674  -5.0614  -4.9937  -4.9201  -4.9058  -4.4255
    -2.9849  -2.9797  -2.9760  -2.9700  -2.9603  -2.9571  -2.9448  -2.9306
    -2.9156  -2.8984  -2.8851  -2.8816  -2.8745  -2.8589  -2.8391  -2.8309
    -1.0397  -0.9497  -0.9268  -0.9106  -0.9041  -0.8571  -0.8350  -0.8170
    -0.7991  -0.7684  -0.7205  -0.6909   0.2125   0.2749   0.3099   0.3178
     0.3527   0.3796   0.4666   0.5200   0.5258   0.6496   0.6503   0.6700
     0.6818   0.7298   0.7498   0.8366   0.8520   0.8978   0.9156   0.9375
     0.9610   0.9679   0.9725   0.9846   0.9931   1.0031   1.0558   1.0633
     1.0726   1.1059   1.1077   1.1571   1.1688   1.1829   1.1899   1.1967
     1.2124   1.2131   1.2232   1.2412   1.2459   1.2656   1.2718   1.2777
     1.2835   1.2988   1.3525   1.5686   1.5784   1.6173   1.6197   1.6763
     1.6837   1.6914   1.7138   1.7308   1.8918   2.0011   2.0177   2.2450

          k = 0.1259 0.1260 0.3827 (301995 PWs)   bands (ev):

   -17.8244 -17.8074 -17.8054 -17.7721 -17.7592 -17.7570 -17.7366 -17.7321
   -14.1793 -14.1741 -14.1722 -14.1696 -14.1634 -14.1619 -14.1601 -14.1588
   -14.1579 -14.1560 -14.1532 -14.1522 -14.1513 -14.1483 -14.1460 -14.1449
   -14.1283 -14.1263 -14.1220 -14.1212 -14.1208 -14.1148 -14.1143 -14.1112
   -14.1103 -14.1088 -14.1088 -14.1077 -14.1072 -14.1062 -14.1055 -14.1036
   -14.1032 -14.1032 -14.1031 -14.1029 -14.1008 -14.1000 -14.0984 -14.0980
   -10.7850 -10.7628 -10.7478 -10.7372 -10.7268 -10.7180 -10.7145 -10.6978
    -9.7086  -9.6332  -9.5133  -9.5017  -9.4423  -9.4287  -9.3245  -9.2928
    -9.2280  -9.2146  -9.2052  -9.1997  -9.1931  -9.1902  -9.1871  -9.1792
    -9.1272  -9.0902  -9.0803  -9.0309  -9.0116  -9.0098  -8.9767  -8.9730
    -7.2545  -7.2475  -7.2468  -7.2366  -7.2323  -7.2226  -7.2173  -7.1812
    -7.1520  -7.1487  -7.1388  -7.1330  -7.1200  -7.0934  -7.0597  -7.0410
    -5.8185  -5.5823  -5.3380  -5.3234  -5.1571  -5.1336  -5.1277  -5.1175
    -5.1044  -5.0920  -5.0850  -5.0759  -5.0652  -5.0601  -4.8483  -4.6216
    -2.9832  -2.9781  -2.9737  -2.9665  -2.9593  -2.9587  -2.9457  -2.9306
    -2.9161  -2.8973  -2.8849  -2.8826  -2.8752  -2.8590  -2.8366  -2.8334
    -0.9429  -0.8918  -0.8629  -0.8378  -0.8285  -0.8047  -0.7672  -0.7447
    -0.5140  -0.4407  -0.4340  -0.3266   0.1193   0.2152   0.2228   0.2881
     0.3052   0.3389   0.3718   0.3760   0.4136   0.4357   0.4566   0.4605
     0.4882   0.5418   0.7427   0.7593   0.7710   0.7887   0.9424   0.9583
     0.9689   0.9766   0.9849   0.9932   1.0316   1.0424   1.0471   1.0594
     1.0696   1.0856   1.0932   1.1033   1.1901   1.2031   1.2136   1.2187
     1.2225   1.2422   1.2483   1.2622   1.2789   1.2919   1.2980   1.3219
     1.3442   1.3575   1.3640   1.3774   1.4914   1.5463   1.5550   1.5639
     1.6153   1.6261   1.7038   1.7174   1.7277   1.7375   1.9114   1.9859

          k = 0.1259 0.3779 0.1276 (302012 PWs)   bands (ev):

   -17.8244 -17.8074 -17.8054 -17.7721 -17.7591 -17.7570 -17.7366 -17.7321
   -14.1822 -14.1734 -14.1690 -14.1677 -14.1664 -14.1637 -14.1630 -14.1599
   -14.1569 -14.1541 -14.1512 -14.1507 -14.1502 -14.1480 -14.1475 -14.1454
   -14.1283 -14.1264 -14.1220 -14.1211 -14.1208 -14.1148 -14.1143 -14.1112
   -14.1103 -14.1088 -14.1087 -14.1077 -14.1073 -14.1062 -14.1055 -14.1035
   -14.1032 -14.1032 -14.1031 -14.1030 -14.1008 -14.0999 -14.0984 -14.0980
   -10.7853 -10.7623 -10.7480 -10.7354 -10.7278 -10.7196 -10.7139 -10.6979
    -9.7023  -9.6298  -9.5190  -9.5072  -9.4382  -9.4286  -9.3220  -9.2884
    -9.2349  -9.2211  -9.2167  -9.2077  -9.1990  -9.1905  -9.1853  -9.1652
    -9.1191  -9.0924  -9.0826  -9.0324  -9.0082  -9.0016  -8.9789  -8.9687
    -7.2584  -7.2498  -7.2483  -7.2409  -7.2298  -7.2189  -7.2153  -7.1804
    -7.1530  -7.1478  -7.1399  -7.1330  -7.1191  -7.0926  -7.0595  -7.0407
    -5.8362  -5.6289  -5.3521  -5.2728  -5.1682  -5.1488  -5.1255  -5.1196
    -5.1055  -5.0832  -5.0818  -5.0748  -5.0670  -5.0596  -4.7900  -4.5910
    -2.9829  -2.9799  -2.9747  -2.9664  -2.9611  -2.9556  -2.9469  -2.9285
    -2.9174  -2.8968  -2.8876  -2.8831  -2.8737  -2.8584  -2.8409  -2.8319
    -0.9976  -0.9467  -0.9114  -0.8865  -0.8766  -0.8322  -0.7646  -0.7321
    -0.4988  -0.4361  -0.3818  -0.2937   0.1320   0.2107   0.2559   0.2640
     0.2920   0.3433   0.3561   0.3582   0.4046   0.4311   0.4550   0.4969
     0.5109   0.5889   0.6998   0.7145   0.7436   0.8130   0.9100   0.9199
     0.9586   0.9719   0.9870   0.9920   1.0035   1.0070   1.0280   1.0498
     1.0594   1.0702   1.0864   1.1567   1.1735   1.1967   1.2071   1.2290
     1.2465   1.2535   1.2732   1.2805   1.2867   1.2942   1.3095   1.3508
     1.3798   1.3864   1.3933   1.4205   1.5102   1.5579   1.5707   1.5924
     1.6252   1.6504   1.6773   1.6847   1.7154   1.7844   2.0204   2.0585

          k = 0.1259 0.3779 0.3827 (301978 PWs)   bands (ev):

   -17.8244 -17.8074 -17.8054 -17.7721 -17.7591 -17.7570 -17.7366 -17.7321
   -14.1790 -14.1733 -14.1709 -14.1686 -14.1638 -14.1613 -14.1602 -14.1590
   -14.1567 -14.1549 -14.1531 -14.1527 -14.1523 -14.1495 -14.1476 -14.1463
   -14.1283 -14.1263 -14.1220 -14.1211 -14.1208 -14.1148 -14.1143 -14.1112
   -14.1103 -14.1088 -14.1087 -14.1077 -14.1072 -14.1062 -14.1055 -14.1035
   -14.1032 -14.1032 -14.1031 -14.1030 -14.1008 -14.1000 -14.0984 -14.0980
   -10.7848 -10.7627 -10.7473 -10.7362 -10.7269 -10.7192 -10.7148 -10.6982
    -9.6628  -9.6039  -9.5740  -9.5166  -9.4764  -9.4219  -9.3819  -9.3486
    -9.2169  -9.2056  -9.1955  -9.1913  -9.1611  -9.1481  -9.1455  -9.1171
    -9.1117  -9.0916  -9.0716  -9.0495  -9.0294  -9.0146  -9.0073  -8.9980
    -7.2543  -7.2479  -7.2464  -7.2365  -7.2323  -7.2230  -7.2175  -7.1813
    -7.1513  -7.1486  -7.1393  -7.1333  -7.1199  -7.0931  -7.0598  -7.0411
    -5.6892  -5.4921  -5.4520  -5.2589  -5.2211  -5.1566  -5.1348  -5.1230
    -5.1081  -5.0927  -5.0844  -5.0708  -5.0659  -4.9992  -4.9642  -4.7802
    -2.9818  -2.9790  -2.9736  -2.9644  -2.9597  -2.9564  -2.9477  -2.9279
    -2.9175  -2.8952  -2.8885  -2.8831  -2.8732  -2.8587  -2.8379  -2.8343
    -0.8878  -0.8475  -0.8203  -0.7856  -0.6156  -0.5029  -0.4902  -0.4472
    -0.3762  -0.3648  -0.3406  -0.3211   0.0658   0.1584   0.1665   0.2145
     0.2322   0.2439   0.2665   0.3029   0.3528   0.3754   0.3838   0.4279
     0.4725   0.5434   0.5861   0.6185   0.7083   0.7248   0.7889   0.7971
     0.8210   0.8467   0.9107   0.9293   0.9692   0.9918   1.0055   1.0348
     1.0593   1.0893   1.1538   1.1667   1.1767   1.2263   1.2319   1.2422
     1.2509   1.2710   1.2873   1.3027   1.3328   1.3456   1.3519   1.3733
     1.3837   1.4048   1.4123   1.4314   1.4534   1.4599   1.4835   1.5262
     1.5433   1.5595   1.5975   1.6120   1.6595   1.7069   1.7399   1.7671

          k = 0.3777 0.1260 0.1276 (302015 PWs)   bands (ev):

   -17.8244 -17.8074 -17.8054 -17.7721 -17.7592 -17.7570 -17.7366 -17.7321
   -14.1823 -14.1733 -14.1708 -14.1667 -14.1653 -14.1645 -14.1626 -14.1577
   -14.1572 -14.1564 -14.1515 -14.1506 -14.1497 -14.1480 -14.1473 -14.1453
   -14.1283 -14.1264 -14.1220 -14.1211 -14.1208 -14.1148 -14.1142 -14.1112
   -14.1103 -14.1088 -14.1087 -14.1077 -14.1073 -14.1062 -14.1055 -14.1036
   -14.1032 -14.1032 -14.1031 -14.1029 -14.1008 -14.0999 -14.0984 -14.0980
   -10.7852 -10.7617 -10.7491 -10.7360 -10.7264 -10.7202 -10.7134 -10.6982
    -9.7028  -9.6291  -9.5226  -9.5038  -9.4413  -9.4223  -9.3250  -9.2887
    -9.2375  -9.2244  -9.2178  -9.2043  -9.2008  -9.1891  -9.1808  -9.1658
    -9.1181  -9.0896  -9.0855  -9.0298  -9.0115  -9.0073  -8.9818  -8.9608
    -7.2583  -7.2505  -7.2475  -7.2411  -7.2303  -7.2180  -7.2158  -7.1805
    -7.1526  -7.1489  -7.1388  -7.1331  -7.1193  -7.0929  -7.0593  -7.0406
    -5.8385  -5.6342  -5.3460  -5.2744  -5.1665  -5.1475  -5.1250  -5.1202
    -5.1069  -5.0874  -5.0801  -5.0736  -5.0673  -5.0608  -4.7834  -4.5875
    -2.9823  -2.9774  -2.9750  -2.9693  -2.9608  -2.9572  -2.9445  -2.9316
    -2.9168  -2.8982  -2.8843  -2.8810  -2.8756  -2.8592  -2.8412  -2.8316
    -1.0009  -0.9482  -0.9257  -0.9037  -0.8737  -0.8310  -0.7871  -0.7483
    -0.4902  -0.4273  -0.3685  -0.2798   0.1330   0.2083   0.2604   0.2656
     0.2970   0.3418   0.3529   0.3701   0.4056   0.4292   0.4582   0.4936
     0.5146   0.5902   0.6952   0.7269   0.7481   0.8142   0.9035   0.9133
     0.9556   0.9625   0.9798   0.9826   1.0027   1.0114   1.0236   1.0483
     1.0563   1.0728   1.0840   1.1402   1.1757   1.1995   1.2129   1.2301
     1.2474   1.2523   1.2740   1.2797   1.2955   1.3067   1.3125   1.3609
     1.3793   1.3862   1.3935   1.4302   1.5068   1.5586   1.5675   1.5842
     1.6408   1.6542   1.6733   1.6921   1.7242   1.7858   2.0319   2.0653

          k = 0.3777 0.1260 0.3827 (301953 PWs)   bands (ev):

   -17.8244 -17.8074 -17.8054 -17.7721 -17.7592 -17.7570 -17.7366 -17.7321
   -14.1791 -14.1732 -14.1721 -14.1682 -14.1624 -14.1619 -14.1593 -14.1580
   -14.1573 -14.1564 -14.1540 -14.1530 -14.1517 -14.1493 -14.1472 -14.1463
   -14.1283 -14.1263 -14.1220 -14.1211 -14.1208 -14.1148 -14.1142 -14.1112
   -14.1103 -14.1088 -14.1087 -14.1077 -14.1072 -14.1062 -14.1055 -14.1036
   -14.1032 -14.1032 -14.1031 -14.1029 -14.1009 -14.1000 -14.0984 -14.0980
   -10.7848 -10.7620 -10.7483 -10.7368 -10.7257 -10.7198 -10.7142 -10.6986
    -9.6632  -9.5970  -9.5825  -9.5180  -9.4726  -9.4135  -9.3896  -9.3475
    -9.2295  -9.2014  -9.1956  -9.1907  -9.1596  -9.1421  -9.1335  -9.1239
    -9.1152  -9.0957  -9.0691  -9.0476  -9.0373  -9.0189  -9.0051  -8.9917
    -7.2546  -7.2474  -7.2467  -7.2367  -7.2323  -7.2227  -7.2174  -7.1814
    -7.1519  -7.1485  -7.1387  -7.1329  -7.1202  -7.0935  -7.0597  -7.0410
    -5.6916  -5.4937  -5.4579  -5.2665  -5.2129  -5.1574  -5.1337  -5.1229
    -5.1098  -5.0876  -5.0805  -5.0757  -5.0651  -4.9941  -4.9614  -4.7768
    -2.9814  -2.9765  -2.9742  -2.9676  -2.9600  -2.9558  -2.9450  -2.9321
    -2.9174  -2.8964  -2.8836  -2.8825  -2.8757  -2.8587  -2.8381  -2.8343
    -0.9105  -0.8652  -0.8389  -0.8020  -0.6026  -0.4981  -0.4786  -0.4362
    -0.3752  -0.3563  -0.3403  -0.3230   0.0723   0.1589   0.1695   0.2196
     0.2348   0.2447   0.2660   0.2945   0.3546   0.3765   0.3864   0.4299
     0.4743   0.5454   0.5894   0.6234   0.7100   0.7225   0.7865   0.7958
     0.8208   0.8413   0.9104   0.9269   0.9557   0.9753   0.9994   1.0375
     1.0516   1.0844   1.1387   1.1489   1.1829   1.2247   1.2420   1.2516
     1.2659   1.2763   1.2912   1.3175   1.3446   1.3540   1.3552   1.3760
     1.3809   1.4003   1.4129   1.4315   1.4530   1.4644   1.4948   1.5206
     1.5299   1.5685   1.5906   1.6200   1.6624   1.7141   1.7560   1.7789

          k = 0.3777 0.3779 0.1276 (301973 PWs)   bands (ev):

   -17.8244 -17.8074 -17.8054 -17.7721 -17.7592 -17.7570 -17.7366 -17.7321
   -14.1820 -14.1724 -14.1685 -14.1666 -14.1656 -14.1639 -14.1629 -14.1589
   -14.1553 -14.1551 -14.1518 -14.1508 -14.1503 -14.1493 -14.1480 -14.1479
   -14.1283 -14.1264 -14.1220 -14.1211 -14.1208 -14.1148 -14.1143 -14.1112
   -14.1103 -14.1088 -14.1087 -14.1077 -14.1073 -14.1063 -14.1055 -14.1035
   -14.1032 -14.1032 -14.1031 -14.1030 -14.1008 -14.0999 -14.0984 -14.0980
   -10.7852 -10.7617 -10.7493 -10.7364 -10.7256 -10.7206 -10.7133 -10.6981
    -9.6541  -9.6059  -9.5874  -9.4991  -9.4751  -9.4159  -9.3899  -9.3471
    -9.2328  -9.2190  -9.2107  -9.2050  -9.1463  -9.1424  -9.1281  -9.1190
    -9.1093  -9.0929  -9.0722  -9.0450  -9.0319  -9.0158  -9.0028  -8.9915
    -7.2581  -7.2498  -7.2482  -7.2413  -7.2294  -7.2193  -7.2155  -7.1807
    -7.1519  -7.1487  -7.1393  -7.1333  -7.1192  -7.0927  -7.0595  -7.0407
    -5.7090  -5.5176  -5.4951  -5.3145  -5.1840  -5.1507  -5.1300  -5.1193
    -5.1032  -5.0836  -5.0767  -5.0694  -5.0587  -4.9539  -4.9299  -4.7469
    -2.9816  -2.9768  -2.9746  -2.9670  -2.9603  -2.9546  -2.9471  -2.9289
    -2.9189  -2.8963  -2.8880  -2.8822  -2.8743  -2.8587  -2.8429  -2.8325
    -0.9565  -0.9229  -0.9216  -0.8578  -0.5558  -0.5225  -0.5014  -0.4208
    -0.3804  -0.3637  -0.3415  -0.2998   0.0900   0.1766   0.1853   0.2287
     0.2702   0.2823   0.2992   0.3116   0.3297   0.3509   0.3563   0.4153
     0.4872   0.5198   0.5264   0.6547   0.6809   0.7525   0.7696   0.7853
     0.8025   0.8188   0.8926   0.9209   0.9834   0.9896   1.0010   1.0183
     1.0701   1.0836   1.0975   1.1527   1.1667   1.2174   1.2263   1.2483
     1.2689   1.2797   1.2906   1.3159   1.3207   1.3318   1.3756   1.4111
     1.4330   1.4395   1.4468   1.4536   1.4610   1.5031   1.5250   1.5446
     1.5548   1.5575   1.5815   1.6256   1.6726   1.7851   1.8041   1.8285

          k = 0.3777 0.3779 0.3827 (302021 PWs)   bands (ev):

   -17.8244 -17.8074 -17.8054 -17.7721 -17.7592 -17.7570 -17.7366 -17.7321
   -14.1788 -14.1724 -14.1708 -14.1672 -14.1633 -14.1604 -14.1597 -14.1585
   -14.1556 -14.1552 -14.1540 -14.1532 -14.1525 -14.1500 -14.1493 -14.1488
   -14.1283 -14.1263 -14.1220 -14.1211 -14.1208 -14.1148 -14.1143 -14.1112
   -14.1103 -14.1088 -14.1087 -14.1077 -14.1072 -14.1063 -14.1055 -14.1035
   -14.1032 -14.1032 -14.1031 -14.1030 -14.1009 -14.1000 -14.0984 -14.0980
   -10.7848 -10.7621 -10.7484 -10.7372 -10.7249 -10.7202 -10.7141 -10.6986
    -9.6175  -9.5735  -9.5567  -9.5312  -9.4992  -9.4794  -9.4532  -9.4110
    -9.1743  -9.1595  -9.1544  -9.1452  -9.1394  -9.1339  -9.1290  -9.1147
    -9.1045  -9.0912  -9.0807  -9.0541  -9.0469  -9.0379  -9.0314  -9.0203
    -7.2545  -7.2479  -7.2463  -7.2365  -7.2323  -7.2232  -7.2175  -7.1815
    -7.1513  -7.1482  -7.1392  -7.1331  -7.1200  -7.0932  -7.0598  -7.0410
    -5.5672  -5.3834  -5.3636  -5.3336  -5.2091  -5.1706  -5.1563  -5.1368
    -5.1262  -5.1048  -5.1004  -5.0716  -5.0658  -5.0608  -5.0509  -4.9265
    -2.9810  -2.9765  -2.9741  -2.9663  -2.9601  -2.9536  -2.9469  -2.9284
    -2.9192  -2.8946  -2.8881  -2.8827  -2.8732  -2.8586  -2.8392  -2.8351
    -0.6102  -0.5458  -0.5366  -0.5076  -0.4651  -0.4353  -0.4279  -0.4176
    -0.3993  -0.3897  -0.3680  -0.2445   0.1028   0.1060   0.1233   0.1420
     0.1918   0.1988   0.2065   0.2106   0.2529   0.2661   0.2831   0.3271
     0.5885   0.6017   0.6102   0.6188   0.6253   0.7026   0.7200   0.7629
     0.7668   0.7750   0.7857   0.8642   0.8696   0.8788   0.8903   0.9030
     1.0283   1.0365   1.0889   1.1149   1.1261   1.1327   1.1397   1.2972
     1.3253   1.3303   1.3492   1.3594   1.3781   1.3821   1.3896   1.3930
     1.4002   1.4076   1.4160   1.4239   1.4308   1.4801   1.5051   1.5092
     1.5132   1.5251   1.5403   1.5455   1.5501   1.5672   1.5751   1.5884

          k =-0.1259-0.1260 0.1276 (301955 PWs)   bands (ev):

   -17.8244 -17.8074 -17.8054 -17.7721 -17.7592 -17.7570 -17.7366 -17.7321
   -14.1825 -14.1742 -14.1712 -14.1678 -14.1661 -14.1647 -14.1627 -14.1587
   -14.1575 -14.1558 -14.1514 -14.1505 -14.1495 -14.1461 -14.1459 -14.1445
   -14.1283 -14.1264 -14.1220 -14.1212 -14.1208 -14.1148 -14.1143 -14.1112
   -14.1103 -14.1088 -14.1088 -14.1077 -14.1073 -14.1062 -14.1055 -14.1036
   -14.1032 -14.1032 -14.1031 -14.1029 -14.1008 -14.0999 -14.0984 -14.0980
   -10.7855 -10.7624 -10.7487 -10.7364 -10.7277 -10.7182 -10.7137 -10.6974
    -9.7503  -9.5561  -9.5517  -9.5406  -9.3601  -9.3529  -9.3349  -9.2559
    -9.2342  -9.2267  -9.2231  -9.2118  -9.2056  -9.2009  -9.1920  -9.1903
    -9.1720  -9.1625  -9.1453  -8.9885  -8.9837  -8.9725  -8.9690  -8.9602
    -7.2586  -7.2509  -7.2474  -7.2406  -7.2308  -7.2179  -7.2150  -7.1801
    -7.1542  -7.1475  -7.1391  -7.1330  -7.1192  -7.0927  -7.0593  -7.0406
    -5.9701  -5.4782  -5.4641  -5.3933  -5.1547  -5.1280  -5.1228  -5.1100
    -5.0846  -5.0778  -5.0672  -5.0612  -4.9941  -4.9206  -4.9064  -4.4253
    -2.9847  -2.9799  -2.9755  -2.9701  -2.9603  -2.9576  -2.9451  -2.9302
    -2.9153  -2.8978  -2.8866  -2.8806  -2.8746  -2.8591  -2.8392  -2.8307
    -1.0337  -0.9561  -0.9296  -0.9094  -0.8994  -0.8588  -0.8379  -0.8152
    -0.8002  -0.7688  -0.7205  -0.6900   0.2121   0.2753   0.3099   0.3184
     0.3535   0.3795   0.4675   0.5162   0.5249   0.6524   0.6601   0.6683
     0.6779   0.7233   0.7474   0.8469   0.8664   0.8955   0.9159   0.9381
     0.9453   0.9666   0.9696   0.9750   0.9876   0.9996   1.0587   1.0664
     1.0717   1.1026   1.1094   1.1628   1.1720   1.1856   1.1931   1.2018
     1.2130   1.2187   1.2218   1.2361   1.2468   1.2659   1.2726   1.2780
     1.2812   1.3027   1.3493   1.5671   1.5780   1.6198   1.6226   1.6741
     1.6837   1.6867   1.7206   1.7311   1.8929   1.9987   2.0151   2.2390

          k =-0.1259 0.1260-0.1276 (301955 PWs)   bands (ev):

   -17.8244 -17.8074 -17.8054 -17.7721 -17.7592 -17.7570 -17.7366 -17.7321
   -14.1825 -14.1742 -14.1712 -14.1678 -14.1661 -14.1647 -14.1627 -14.1587
   -14.1575 -14.1558 -14.1514 -14.1505 -14.1495 -14.1461 -14.1459 -14.1445
   -14.1283 -14.1264 -14.1220 -14.1212 -14.1208 -14.1148 -14.1143 -14.1112
   -14.1103 -14.1088 -14.1088 -14.1077 -14.1073 -14.1062 -14.1055 -14.1036
   -14.1032 -14.1032 -14.1031 -14.1029 -14.1008 -14.0999 -14.0984 -14.0980
   -10.7856 -10.7625 -10.7491 -10.7369 -10.7275 -10.7176 -10.7135 -10.6972
    -9.7534  -9.5558  -9.5440  -9.5387  -9.3691  -9.3517  -9.3406  -9.2502
    -9.2360  -9.2282  -9.2223  -9.2120  -9.2057  -9.2016  -9.1951  -9.1871
    -9.1723  -9.1584  -9.1438  -8.9907  -8.9826  -8.9734  -8.9687  -8.9595
    -7.2587  -7.2507  -7.2474  -7.2407  -7.2306  -7.2178  -7.2153  -7.1802
    -7.1538  -7.1480  -7.1393  -7.1328  -7.1192  -7.0927  -7.0594  -7.0406
    -5.9700  -5.4778  -5.4654  -5.3922  -5.1566  -5.1301  -5.1251  -5.1140
    -5.0835  -5.0763  -5.0656  -5.0592  -4.9929  -4.9178  -4.9065  -4.4251
    -2.9845  -2.9801  -2.9763  -2.9704  -2.9602  -2.9566  -2.9449  -2.9305
    -2.9153  -2.8983  -2.8864  -2.8807  -2.8745  -2.8593  -2.8392  -2.8305
    -1.0381  -1.0156  -0.9123  -0.9066  -0.8696  -0.8581  -0.8434  -0.8278
    -0.7957  -0.7375  -0.7127  -0.6885   0.2098   0.2769   0.3182   0.3251
     0.3375   0.3838   0.4578   0.5157   0.5213   0.5834   0.6499   0.6585
     0.7315   0.7484   0.7603   0.8349   0.8491   0.8575   0.9169   0.9546
     0.9689   0.9815   0.9914   1.0009   1.0127   1.0265   1.0445   1.0648
     1.0658   1.0887   1.1276   1.1524   1.1609   1.1689   1.1796   1.1916
     1.1988   1.2012   1.2095   1.2244   1.2347   1.2431   1.2717   1.2772
     1.2999   1.3415   1.3536   1.5564   1.5694   1.6232   1.6303   1.6746
     1.6856   1.6881   1.7016   1.7098   1.9428   2.0001   2.0092   2.2808

          k = 0.1259-0.1260-0.1276 (301955 PWs)   bands (ev):

   -17.8244 -17.8074 -17.8054 -17.7721 -17.7592 -17.7570 -17.7366 -17.7321
   -14.1825 -14.1742 -14.1712 -14.1678 -14.1661 -14.1647 -14.1627 -14.1587
   -14.1575 -14.1558 -14.1514 -14.1505 -14.1495 -14.1461 -14.1459 -14.1445
   -14.1283 -14.1264 -14.1220 -14.1212 -14.1208 -14.1148 -14.1143 -14.1112
   -14.1103 -14.1088 -14.1088 -14.1077 -14.1073 -14.1062 -14.1055 -14.1036
   -14.1032 -14.1032 -14.1031 -14.1029 -14.1008 -14.0999 -14.0984 -14.0980
   -10.7856 -10.7625 -10.7491 -10.7369 -10.7275 -10.7176 -10.7135 -10.6972
    -9.7533  -9.5580  -9.5455  -9.5348  -9.3716  -9.3541  -9.3341  -9.2532
    -9.2371  -9.2270  -9.2207  -9.2117  -9.2061  -9.2012  -9.1954  -9.1873
    -9.1765  -9.1555  -9.1427  -8.9909  -8.9824  -8.9734  -8.9688  -8.9595
    -7.2585  -7.2506  -7.2477  -7.2407  -7.2308  -7.2177  -7.2153  -7.1801
    -7.1541  -7.1475  -7.1391  -7.1330  -7.1192  -7.0928  -7.0594  -7.0406
    -5.9699  -5.4779  -5.4657  -5.3919  -5.1564  -5.1302  -5.1250  -5.1141
    -5.0836  -5.0763  -5.0654  -5.0595  -4.9931  -4.9172  -4.9067  -4.4251
    -2.9852  -2.9796  -2.9754  -2.9697  -2.9602  -2.9580  -2.9451  -2.9308
    -2.9154  -2.8983  -2.8851  -2.8814  -2.8749  -2.8589  -2.8388  -2.8309
    -1.0365  -1.0175  -0.9182  -0.9073  -0.8704  -0.8542  -0.8391  -0.8291
    -0.7967  -0.7338  -0.7143  -0.6879   0.2100   0.2771   0.3182   0.3251
     0.3370   0.3846   0.4571   0.5147   0.5224   0.5818   0.6470   0.6595
     0.7299   0.7497   0.7636   0.8305   0.8431   0.8696   0.9133   0.9592
     0.9723   0.9774   0.9933   0.9992   1.0136   1.0304   1.0358   1.0597
     1.0703   1.0915   1.1267   1.1472   1.1576   1.1751   1.1809   1.1868
     1.1937   1.2051   1.2169   1.2263   1.2351   1.2411   1.2718   1.2748
     1.3021   1.3416   1.3533   1.5574   1.5677   1.6222   1.6311   1.6735
     1.6865   1.6872   1.6987   1.7125   1.9431   1.9977   2.0122   2.2827

          k =-0.1259-0.1260 0.3827 (301995 PWs)   bands (ev):

   -17.8244 -17.8074 -17.8054 -17.7721 -17.7592 -17.7570 -17.7366 -17.7321
   -14.1793 -14.1741 -14.1722 -14.1696 -14.1634 -14.1619 -14.1601 -14.1588
   -14.1579 -14.1560 -14.1532 -14.1522 -14.1513 -14.1483 -14.1460 -14.1449
   -14.1283 -14.1263 -14.1220 -14.1212 -14.1208 -14.1148 -14.1143 -14.1112
   -14.1103 -14.1088 -14.1088 -14.1077 -14.1072 -14.1062 -14.1055 -14.1036
   -14.1032 -14.1032 -14.1031 -14.1029 -14.1008 -14.1000 -14.0984 -14.0980
   -10.7850 -10.7628 -10.7479 -10.7372 -10.7268 -10.7180 -10.7145 -10.6978
    -9.7086  -9.6328  -9.5146  -9.5025  -9.4415  -9.4266  -9.3281  -9.2903
    -9.2253  -9.2143  -9.2088  -9.1996  -9.1948  -9.1912  -9.1879  -9.1744
    -9.1288  -9.0900  -9.0794  -9.0309  -9.0124  -9.0097  -8.9764  -8.9731
    -7.2544  -7.2483  -7.2461  -7.2367  -7.2321  -7.2228  -7.2171  -7.1812
    -7.1526  -7.1481  -7.1387  -7.1332  -7.1200  -7.0934  -7.0597  -7.0410
    -5.8186  -5.5820  -5.3385  -5.3244  -5.1564  -5.1326  -5.1260  -5.1150
    -5.1052  -5.0931  -5.0845  -5.0772  -5.0660  -5.0608  -4.8497  -4.6209
    -2.9830  -2.9784  -2.9732  -2.9661  -2.9609  -2.9580  -2.9461  -2.9302
    -2.9158  -2.8965  -2.8869  -2.8812  -2.8753  -2.8592  -2.8369  -2.8331
    -0.9391  -0.8940  -0.8608  -0.8400  -0.8275  -0.8062  -0.7666  -0.7450
    -0.5160  -0.4409  -0.4358  -0.3263   0.1204   0.2156   0.2223   0.2878
     0.3058   0.3364   0.3756   0.3789   0.4153   0.4375   0.4555   0.4565
     0.4874   0.5405   0.7360   0.7591   0.7770   0.7970   0.9360   0.9539
     0.9657   0.9758   0.9796   0.9957   1.0252   1.0414   1.0495   1.0635
     1.0769   1.0826   1.0931   1.1008   1.1993   1.2061   1.2107   1.2232
     1.2295   1.2370   1.2460   1.2571   1.2753   1.2897   1.3088   1.3187
     1.3477   1.3629   1.3684   1.3771   1.4937   1.5388   1.5501   1.5641
     1.6139   1.6254   1.7066   1.7183   1.7272   1.7359   1.9118   1.9816

          k =-0.1259 0.1260-0.3827 (301995 PWs)   bands (ev):

   -17.8244 -17.8074 -17.8054 -17.7721 -17.7592 -17.7570 -17.7366 -17.7321
   -14.1793 -14.1741 -14.1722 -14.1696 -14.1634 -14.1619 -14.1601 -14.1588
   -14.1579 -14.1560 -14.1532 -14.1522 -14.1513 -14.1483 -14.1460 -14.1449
   -14.1283 -14.1263 -14.1220 -14.1212 -14.1208 -14.1148 -14.1143 -14.1112
   -14.1103 -14.1088 -14.1088 -14.1077 -14.1072 -14.1062 -14.1055 -14.1036
   -14.1032 -14.1032 -14.1031 -14.1029 -14.1008 -14.1000 -14.0984 -14.0980
   -10.7851 -10.7629 -10.7482 -10.7378 -10.7265 -10.7174 -10.7143 -10.6975
    -9.7112  -9.6338  -9.5084  -9.5007  -9.4391  -9.4261  -9.3350  -9.2918
    -9.2307  -9.2183  -9.2066  -9.2031  -9.1954  -9.1934  -9.1797  -9.1690
    -9.1295  -9.0887  -9.0793  -9.0315  -9.0123  -9.0091  -8.9763  -8.9730
    -7.2546  -7.2480  -7.2462  -7.2367  -7.2320  -7.2227  -7.2172  -7.1813
    -7.1520  -7.1488  -7.1388  -7.1330  -7.1200  -7.0933  -7.0597  -7.0410
    -5.8183  -5.5813  -5.3388  -5.3258  -5.1601  -5.1364  -5.1323  -5.1185
    -5.1036  -5.0890  -5.0830  -5.0735  -5.0621  -5.0578  -4.8487  -4.6209
    -2.9830  -2.9785  -2.9737  -2.9677  -2.9594  -2.9572  -2.9460  -2.9306
    -2.9158  -2.8971  -2.8865  -2.8816  -2.8754  -2.8594  -2.8371  -2.8326
    -0.9830  -0.9141  -0.8510  -0.8244  -0.8039  -0.7890  -0.7626  -0.7425
    -0.5180  -0.4356  -0.4317  -0.3294   0.1155   0.2182   0.2253   0.2964
     0.3062   0.3275   0.3696   0.3826   0.3942   0.4460   0.4545   0.4657
     0.4696   0.5550   0.7561   0.7664   0.7791   0.7875   0.8938   0.9430
     0.9535   0.9646   0.9766   1.0057   1.0128   1.0292   1.0534   1.0813
     1.0929   1.1135   1.1167   1.1321   1.1554   1.1691   1.1988   1.2154
     1.2232   1.2247   1.2498   1.2563   1.2853   1.3067   1.3163   1.3316
     1.3464   1.3629   1.3693   1.3889   1.5132   1.5318   1.5493   1.5563
     1.6016   1.6199   1.6889   1.6963   1.7214   1.7244   1.9607   2.0296

          k = 0.1259-0.1260-0.3827 (301995 PWs)   bands (ev):

   -17.8244 -17.8074 -17.8054 -17.7721 -17.7592 -17.7570 -17.7366 -17.7321
   -14.1793 -14.1741 -14.1722 -14.1696 -14.1634 -14.1619 -14.1601 -14.1588
   -14.1579 -14.1560 -14.1532 -14.1522 -14.1513 -14.1483 -14.1460 -14.1449
   -14.1283 -14.1263 -14.1220 -14.1212 -14.1208 -14.1148 -14.1143 -14.1112
   -14.1103 -14.1088 -14.1088 -14.1077 -14.1072 -14.1062 -14.1055 -14.1036
   -14.1032 -14.1032 -14.1031 -14.1029 -14.1008 -14.1000 -14.0984 -14.0980
   -10.7851 -10.7629 -10.7482 -10.7378 -10.7265 -10.7174 -10.7144 -10.6975
    -9.7109  -9.6346  -9.5085  -9.4994  -9.4380  -9.4291  -9.3319  -9.2934
    -9.2320  -9.2149  -9.2078  -9.2031  -9.1994  -9.1915  -9.1792  -9.1698
    -9.1285  -9.0890  -9.0781  -9.0319  -9.0120  -9.0096  -8.9764  -8.9729
    -7.2543  -7.2477  -7.2469  -7.2366  -7.2324  -7.2225  -7.2172  -7.1812
    -7.1525  -7.1481  -7.1387  -7.1332  -7.1201  -7.0934  -7.0597  -7.0410
    -5.8181  -5.5817  -5.3382  -5.3260  -5.1590  -5.1382  -5.1316  -5.1190
    -5.1033  -5.0895  -5.0835  -5.0728  -5.0626  -5.0574  -4.8485  -4.6209
    -2.9837  -2.9780  -2.9730  -2.9655  -2.9608  -2.9584  -2.9462  -2.9308
    -2.9160  -2.8972  -2.8846  -2.8827  -2.8759  -2.8590  -2.8361  -2.8336
    -0.9823  -0.9143  -0.8511  -0.8263  -0.8052  -0.7915  -0.7606  -0.7422
    -0.5155  -0.4368  -0.4274  -0.3288   0.1147   0.2172   0.2238   0.2982
     0.3057   0.3255   0.3711   0.3848   0.3927   0.4433   0.4556   0.4644
     0.4691   0.5549   0.7568   0.7650   0.7763   0.7915   0.8937   0.9489
     0.9544   0.9620   0.9764   1.0032   1.0133   1.0301   1.0575   1.0835
     1.0901   1.1081   1.1217   1.1273   1.1510   1.1711   1.2038   1.2124
     1.2177   1.2276   1.2514   1.2602   1.2829   1.3059   1.3214   1.3357
     1.3386   1.3622   1.3718   1.3879   1.5135   1.5315   1.5461   1.5568
     1.6081   1.6133   1.6897   1.6950   1.7150   1.7331   1.9605   2.0309

          k =-0.1259-0.3779 0.1276 (302012 PWs)   bands (ev):

   -17.8244 -17.8074 -17.8054 -17.7721 -17.7591 -17.7570 -17.7366 -17.7321
   -14.1822 -14.1734 -14.1690 -14.1677 -14.1664 -14.1637 -14.1630 -14.1599
   -14.1569 -14.1541 -14.1512 -14.1507 -14.1502 -14.1480 -14.1475 -14.1454
   -14.1283 -14.1264 -14.1220 -14.1211 -14.1208 -14.1148 -14.1143 -14.1112
   -14.1103 -14.1088 -14.1087 -14.1077 -14.1073 -14.1062 -14.1055 -14.1035
   -14.1032 -14.1032 -14.1031 -14.1030 -14.1008 -14.0999 -14.0984 -14.0980
   -10.7853 -10.7623 -10.7480 -10.7354 -10.7278 -10.7196 -10.7139 -10.6979
    -9.7024  -9.6291  -9.5188  -9.5098  -9.4359  -9.4284  -9.3249  -9.2863
    -9.2313  -9.2226  -9.2179  -9.2095  -9.2020  -9.1886  -9.1842  -9.1633
    -9.1206  -9.0925  -9.0821  -9.0321  -9.0086  -9.0016  -8.9789  -8.9688
    -7.2583  -7.2503  -7.2480  -7.2408  -7.2298  -7.2190  -7.2152  -7.1804
    -7.1534  -7.1474  -7.1397  -7.1332  -7.1191  -7.0926  -7.0595  -7.0407
    -5.8363  -5.6286  -5.3526  -5.2730  -5.1663  -5.1484  -5.1257  -5.1197
    -5.1058  -5.0832  -5.0823  -5.0739  -5.0673  -5.0606  -4.7906  -4.5906
    -2.9823  -2.9806  -2.9745  -2.9667  -2.9607  -2.9556  -2.9475  -2.9281
    -2.9171  -2.8959  -2.8896  -2.8819  -2.8737  -2.8586  -2.8410  -2.8318
    -0.9946  -0.9496  -0.9116  -0.8847  -0.8764  -0.8336  -0.7637  -0.7317
    -0.5010  -0.4379  -0.3826  -0.2933   0.1323   0.2114   0.2588   0.2632
     0.2928   0.3435   0.3511   0.3631   0.4061   0.4330   0.4534   0.4979
     0.5089   0.5879   0.6974   0.7109   0.7499   0.8119   0.9089   0.9314
     0.9511   0.9695   0.9803   0.9911   0.9948   1.0067   1.0319   1.0551
     1.0582   1.0679   1.0888   1.1564   1.1783   1.1974   1.2095   1.2353
     1.2446   1.2544   1.2674   1.2789   1.2870   1.2939   1.3086   1.3486
     1.3804   1.3866   1.4016   1.4182   1.5173   1.5595   1.5679   1.5906
     1.6245   1.6547   1.6752   1.6855   1.7176   1.7790   2.0193   2.0526

          k =-0.1259 0.3779-0.1276 (302012 PWs)   bands (ev):

   -17.8244 -17.8074 -17.8054 -17.7721 -17.7591 -17.7570 -17.7366 -17.7321
   -14.1822 -14.1734 -14.1690 -14.1677 -14.1664 -14.1637 -14.1630 -14.1599
   -14.1569 -14.1541 -14.1512 -14.1507 -14.1502 -14.1480 -14.1475 -14.1454
   -14.1283 -14.1264 -14.1220 -14.1211 -14.1208 -14.1148 -14.1143 -14.1112
   -14.1103 -14.1088 -14.1087 -14.1077 -14.1073 -14.1062 -14.1055 -14.1035
   -14.1032 -14.1032 -14.1031 -14.1030 -14.1008 -14.0999 -14.0984 -14.0980
   -10.7854 -10.7624 -10.7484 -10.7361 -10.7275 -10.7190 -10.7137 -10.6976
    -9.7101  -9.6202  -9.5147  -9.5012  -9.4474  -9.4327  -9.3290  -9.2809
    -9.2347  -9.2209  -9.2168  -9.2090  -9.2006  -9.1933  -9.1843  -9.1618
    -9.1219  -9.0882  -9.0792  -9.0331  -9.0110  -9.0026  -8.9783  -8.9682
    -7.2584  -7.2501  -7.2479  -7.2409  -7.2296  -7.2189  -7.2155  -7.1804
    -7.1530  -7.1479  -7.1399  -7.1330  -7.1191  -7.0925  -7.0595  -7.0407
    -5.8358  -5.6293  -5.3541  -5.2689  -5.1656  -5.1505  -5.1305  -5.1252
    -5.1137  -5.0835  -5.0795  -5.0749  -5.0643  -5.0485  -4.7897  -4.5906
    -2.9821  -2.9805  -2.9750  -2.9676  -2.9608  -2.9546  -2.9472  -2.9284
    -2.9170  -2.8962  -2.8896  -2.8820  -2.8736  -2.8588  -2.8410  -2.8315
    -0.9965  -0.9564  -0.9363  -0.8796  -0.8579  -0.8418  -0.7846  -0.7244
    -0.4729  -0.4184  -0.3592  -0.2860   0.1249   0.1730   0.2491   0.2523
     0.3077   0.3363   0.3576   0.3687   0.4093   0.4201   0.4412   0.4618
     0.5176   0.5992   0.7092   0.7389   0.7540   0.7717   0.9170   0.9482
     0.9661   0.9824   0.9911   0.9996   1.0109   1.0179   1.0311   1.0417
     1.0590   1.0753   1.0898   1.1131   1.1776   1.1887   1.2016   1.2138
     1.2421   1.2517   1.2605   1.2768   1.2880   1.2938   1.3326   1.3543
     1.3683   1.3827   1.4034   1.4140   1.5231   1.5516   1.5698   1.5790
     1.5941   1.6591   1.6763   1.6895   1.7602   1.7817   2.0089   2.0907

          k = 0.1259-0.3779-0.1276 (302012 PWs)   bands (ev):

   -17.8244 -17.8074 -17.8054 -17.7721 -17.7591 -17.7570 -17.7366 -17.7321
   -14.1822 -14.1734 -14.1690 -14.1677 -14.1664 -14.1637 -14.1630 -14.1599
   -14.1569 -14.1541 -14.1512 -14.1507 -14.1502 -14.1480 -14.1475 -14.1454
   -14.1283 -14.1264 -14.1220 -14.1211 -14.1208 -14.1148 -14.1143 -14.1112
   -14.1103 -14.1088 -14.1087 -14.1077 -14.1073 -14.1062 -14.1055 -14.1035
   -14.1032 -14.1032 -14.1031 -14.1030 -14.1008 -14.0999 -14.0984 -14.0980
   -10.7854 -10.7624 -10.7484 -10.7361 -10.7275 -10.7190 -10.7137 -10.6976
    -9.7099  -9.6209  -9.5140  -9.5005  -9.4468  -9.4356  -9.3257  -9.2831
    -9.2316  -9.2238  -9.2169  -9.2079  -9.2029  -9.1910  -9.1860  -9.1629
    -9.1199  -9.0870  -9.0805  -9.0331  -9.0108  -9.0028  -8.9783  -8.9684
    -7.2582  -7.2498  -7.2485  -7.2408  -7.2298  -7.2188  -7.2154  -7.1803
    -7.1533  -7.1474  -7.1398  -7.1332  -7.1192  -7.0926  -7.0595  -7.0407
    -5.8357  -5.6296  -5.3534  -5.2691  -5.1652  -5.1521  -5.1299  -5.1255
    -5.1140  -5.0837  -5.0790  -5.0745  -5.0643  -5.0486  -4.7890  -4.5909
    -2.9831  -2.9800  -2.9744  -2.9660  -2.9607  -2.9561  -2.9476  -2.9287
    -2.9172  -2.8969  -2.8875  -2.8828  -2.8742  -2.8583  -2.8406  -2.8319
    -0.9974  -0.9521  -0.9417  -0.8785  -0.8604  -0.8403  -0.7847  -0.7243
    -0.4711  -0.4167  -0.3583  -0.2860   0.1243   0.1723   0.2452   0.2539
     0.3072   0.3386   0.3557   0.3700   0.4052   0.4211   0.4416   0.4629
     0.5201   0.5969   0.7125   0.7405   0.7557   0.7601   0.9340   0.9468
     0.9644   0.9774   0.9941   0.9999   1.0077   1.0182   1.0285   1.0385
     1.0584   1.0714   1.0972   1.1096   1.1806   1.1917   1.2029   1.2092
     1.2388   1.2468   1.2672   1.2781   1.2870   1.2952   1.3358   1.3573
     1.3718   1.3782   1.4012   1.4104   1.5235   1.5504   1.5660   1.5827
     1.5936   1.6560   1.6763   1.6905   1.7633   1.7847   2.0047   2.0934

          k =-0.1259-0.3779 0.3827 (301978 PWs)   bands (ev):

   -17.8244 -17.8074 -17.8054 -17.7721 -17.7591 -17.7570 -17.7366 -17.7321
   -14.1790 -14.1733 -14.1709 -14.1686 -14.1638 -14.1613 -14.1602 -14.1590
   -14.1567 -14.1549 -14.1531 -14.1527 -14.1523 -14.1495 -14.1476 -14.1463
   -14.1283 -14.1263 -14.1220 -14.1211 -14.1208 -14.1148 -14.1143 -14.1112
   -14.1103 -14.1088 -14.1087 -14.1077 -14.1072 -14.1062 -14.1055 -14.1035
   -14.1032 -14.1032 -14.1031 -14.1030 -14.1008 -14.1000 -14.0984 -14.0980
   -10.7848 -10.7627 -10.7473 -10.7362 -10.7269 -10.7192 -10.7148 -10.6982
    -9.6635  -9.5926  -9.5865  -9.5158  -9.4772  -9.4095  -9.3969  -9.3440
    -9.2153  -9.2074  -9.1961  -9.1909  -9.1656  -9.1479  -9.1340  -9.1236
    -9.1095  -9.0989  -9.0639  -9.0510  -9.0298  -9.0176  -9.0054  -8.9980
    -7.2543  -7.2485  -7.2460  -7.2366  -7.2321  -7.2231  -7.2173  -7.1813
    -7.1520  -7.1479  -7.1392  -7.1334  -7.1198  -7.0931  -7.0598  -7.0411
    -5.6897  -5.4860  -5.4578  -5.2603  -5.2212  -5.1570  -5.1329  -5.1229
    -5.1073  -5.0919  -5.0829  -5.0710  -5.0650  -4.9977  -4.9713  -4.7786
    -2.9812  -2.9797  -2.9734  -2.9645  -2.9601  -2.9557  -2.9486  -2.9275
    -2.9171  -2.8933  -2.8916  -2.8819  -2.8732  -2.8589  -2.8380  -2.8341
    -0.8859  -0.8480  -0.8237  -0.7839  -0.6070  -0.5076  -0.4777  -0.4522
    -0.3846  -0.3699  -0.3468  -0.3230   0.0743   0.1628   0.1682   0.2182
     0.2323   0.2464   0.2619   0.2983   0.3581   0.3709   0.3872   0.4268
     0.4754   0.5377   0.5785   0.6289   0.7006   0.7249   0.7924   0.7975
     0.8180   0.8433   0.9145   0.9340   0.9638   0.9906   1.0018   1.0362
     1.0635   1.0900   1.1507   1.1651   1.1772   1.2232   1.2336   1.2459
     1.2528   1.2651   1.2827   1.3111   1.3347   1.3491   1.3584   1.3732
     1.3919   1.3963   1.4205   1.4358   1.4503   1.4610   1.4815   1.5219
     1.5358   1.5566   1.5927   1.6201   1.6580   1.7072   1.7375   1.7642

          k =-0.1259 0.3779-0.3827 (301978 PWs)   bands (ev):

   -17.8244 -17.8074 -17.8054 -17.7721 -17.7591 -17.7570 -17.7366 -17.7321
   -14.1790 -14.1733 -14.1709 -14.1686 -14.1638 -14.1613 -14.1602 -14.1590
   -14.1567 -14.1549 -14.1530 -14.1527 -14.1523 -14.1495 -14.1476 -14.1463
   -14.1283 -14.1263 -14.1220 -14.1211 -14.1208 -14.1148 -14.1143 -14.1112
   -14.1103 -14.1088 -14.1087 -14.1077 -14.1072 -14.1062 -14.1055 -14.1035
   -14.1032 -14.1032 -14.1031 -14.1030 -14.1008 -14.1000 -14.0984 -14.0980
   -10.7849 -10.7627 -10.7477 -10.7369 -10.7265 -10.7187 -10.7146 -10.6980
    -9.6696  -9.5937  -9.5812  -9.5114  -9.4687  -9.4131  -9.4003  -9.3488
    -9.2177  -9.2069  -9.1974  -9.1934  -9.1625  -9.1469  -9.1349  -9.1241
    -9.1070  -9.0976  -9.0625  -9.0524  -9.0308  -9.0167  -9.0062  -8.9967
    -7.2544  -7.2483  -7.2460  -7.2366  -7.2319  -7.2231  -7.2174  -7.1814
    -7.1513  -7.1486  -7.1394  -7.1332  -7.1198  -7.0931  -7.0598  -7.0411
    -5.6886  -5.4876  -5.4556  -5.2644  -5.2275  -5.1565  -5.1318  -5.1221
    -5.1091  -5.0893  -5.0846  -5.0676  -5.0629  -4.9970  -4.9692  -4.7789
    -2.9814  -2.9795  -2.9737  -2.9659  -2.9598  -2.9543  -2.9484  -2.9278
    -2.9171  -2.8938  -2.8913  -2.8822  -2.8732  -2.8592  -2.8383  -2.8336
    -0.9089  -0.8461  -0.8375  -0.7757  -0.6056  -0.5002  -0.4731  -0.4322
    -0.3854  -0.3621  -0.3389  -0.3007   0.0678   0.1496   0.1690   0.2011
     0.2214   0.2402   0.2727   0.2943   0.3434   0.3720   0.3832   0.4378
     0.4589   0.5401   0.5997   0.6330   0.7162   0.7273   0.7820   0.7930
     0.8097   0.8335   0.9001   0.9182   0.9626   0.9830   1.0087   1.0624
     1.0967   1.1021   1.1111   1.1511   1.1918   1.2171   1.2314   1.2456
     1.2533   1.2610   1.2795   1.3126   1.3454   1.3500   1.3701   1.3800
     1.3870   1.4010   1.4279   1.4432   1.4484   1.4569   1.4717   1.5158
     1.5393   1.5519   1.5629   1.5961   1.6275   1.7197   1.7732   1.8193

          k = 0.1259-0.3779-0.3827 (301978 PWs)   bands (ev):

   -17.8244 -17.8074 -17.8054 -17.7721 -17.7591 -17.7570 -17.7366 -17.7321
   -14.1790 -14.1733 -14.1709 -14.1686 -14.1638 -14.1613 -14.1602 -14.1590
   -14.1567 -14.1549 -14.1531 -14.1527 -14.1523 -14.1495 -14.1476 -14.1463
   -14.1283 -14.1263 -14.1220 -14.1211 -14.1208 -14.1148 -14.1143 -14.1112
   -14.1103 -14.1088 -14.1087 -14.1077 -14.1072 -14.1062 -14.1055 -14.1035
   -14.1032 -14.1032 -14.1031 -14.1030 -14.1008 -14.1000 -14.0984 -14.0980
   -10.7849 -10.7627 -10.7477 -10.7369 -10.7265 -10.7187 -10.7146 -10.6980
    -9.6686  -9.6030  -9.5709  -9.5130  -9.4677  -9.4256  -9.3852  -9.3526
    -9.2167  -9.2082  -9.1984  -9.1920  -9.1605  -9.1484  -9.1434  -9.1155
    -9.1119  -9.0881  -9.0711  -9.0497  -9.0314  -9.0138  -9.0082  -8.9970
    -7.2542  -7.2480  -7.2465  -7.2365  -7.2324  -7.2229  -7.2174  -7.1813
    -7.1519  -7.1479  -7.1392  -7.1334  -7.1199  -7.0932  -7.0598  -7.0411
    -5.6880  -5.4932  -5.4503  -5.2633  -5.2263  -5.1565  -5.1331  -5.1228
    -5.1104  -5.0895  -5.0863  -5.0676  -5.0638  -4.9990  -4.9625  -4.7800
    -2.9823  -2.9789  -2.9732  -2.9640  -2.9594  -2.9563  -2.9488  -2.9281
    -2.9172  -2.8955  -2.8881  -2.8829  -2.8739  -2.8587  -2.8373  -2.8346
    -0.9092  -0.8478  -0.8336  -0.7779  -0.6137  -0.4979  -0.4840  -0.4288
    -0.3787  -0.3561  -0.3281  -0.2997   0.0589   0.1457   0.1671   0.2004
     0.2149   0.2414   0.2755   0.2934   0.3539   0.3629   0.3878   0.4356
     0.4602   0.5441   0.6054   0.6212   0.7148   0.7291   0.7789   0.7947
     0.8124   0.8417   0.8996   0.9165   0.9642   0.9734   1.0095   1.0593
     1.0968   1.1036   1.1157   1.1556   1.1990   1.2144   1.2236   1.2395
     1.2569   1.2651   1.2758   1.3162   1.3463   1.3540   1.3701   1.3759
     1.3844   1.4051   1.4211   1.4387   1.4446   1.4634   1.4744   1.5162
     1.5439   1.5548   1.5637   1.5902   1.6276   1.7158   1.7736   1.8223

          k =-0.3777-0.1260 0.1276 (302015 PWs)   bands (ev):

   -17.8244 -17.8074 -17.8054 -17.7721 -17.7592 -17.7570 -17.7366 -17.7321
   -14.1823 -14.1733 -14.1708 -14.1667 -14.1653 -14.1645 -14.1626 -14.1577
   -14.1572 -14.1564 -14.1515 -14.1506 -14.1497 -14.1480 -14.1473 -14.1453
   -14.1283 -14.1264 -14.1220 -14.1211 -14.1208 -14.1148 -14.1142 -14.1112
   -14.1103 -14.1088 -14.1087 -14.1077 -14.1073 -14.1062 -14.1055 -14.1036
   -14.1032 -14.1032 -14.1031 -14.1029 -14.1008 -14.0999 -14.0984 -14.0980
   -10.7852 -10.7617 -10.7491 -10.7360 -10.7264 -10.7202 -10.7134 -10.6982
    -9.7026  -9.6293  -9.5164  -9.5108  -9.4365  -9.4273  -9.3246  -9.2870
    -9.2350  -9.2220  -9.2178  -9.2108  -9.2036  -9.1875  -9.1804  -9.1646
    -9.1177  -9.0881  -9.0863  -9.0307  -9.0116  -9.0068  -8.9819  -8.9608
    -7.2582  -7.2509  -7.2473  -7.2410  -7.2303  -7.2180  -7.2157  -7.1805
    -7.1532  -7.1483  -7.1387  -7.1333  -7.1192  -7.0929  -7.0593  -7.0407
    -5.8384  -5.6344  -5.3455  -5.2752  -5.1634  -5.1482  -5.1252  -5.1202
    -5.1073  -5.0863  -5.0804  -5.0737  -5.0684  -5.0619  -4.7838  -4.5872
    -2.9824  -2.9774  -2.9747  -2.9686  -2.9604  -2.9590  -2.9447  -2.9310
    -2.9166  -2.8976  -2.8857  -2.8801  -2.8755  -2.8595  -2.8413  -2.8315
    -0.9944  -0.9479  -0.9291  -0.9067  -0.8761  -0.8286  -0.7885  -0.7480
    -0.4907  -0.4273  -0.3685  -0.2792   0.1322   0.2085   0.2601   0.2663
     0.2981   0.3424   0.3514   0.3717   0.4067   0.4303   0.4562   0.4946
     0.5124   0.5889   0.6985   0.7148   0.7571   0.8125   0.9102   0.9186
     0.9501   0.9606   0.9787   0.9827   0.9963   1.0069   1.0247   1.0498
     1.0633   1.0687   1.0824   1.1412   1.1791   1.2019   1.2103   1.2351
     1.2439   1.2537   1.2720   1.2797   1.2928   1.3047   1.3138   1.3585
     1.3829   1.3896   1.3981   1.4291   1.5131   1.5571   1.5647   1.5845
     1.6390   1.6554   1.6744   1.6940   1.7260   1.7822   2.0288   2.0592

          k =-0.3777 0.1260-0.1276 (302015 PWs)   bands (ev):

   -17.8244 -17.8074 -17.8054 -17.7721 -17.7592 -17.7570 -17.7366 -17.7321
   -14.1823 -14.1733 -14.1708 -14.1667 -14.1653 -14.1645 -14.1626 -14.1577
   -14.1572 -14.1564 -14.1515 -14.1506 -14.1497 -14.1480 -14.1473 -14.1453
   -14.1283 -14.1264 -14.1220 -14.1211 -14.1208 -14.1148 -14.1142 -14.1112
   -14.1103 -14.1088 -14.1087 -14.1077 -14.1073 -14.1062 -14.1055 -14.1036
   -14.1032 -14.1032 -14.1031 -14.1029 -14.1008 -14.0999 -14.0984 -14.0980
   -10.7853 -10.7617 -10.7496 -10.7366 -10.7263 -10.7195 -10.7132 -10.6979
    -9.7104  -9.6202  -9.5133  -9.5010  -9.4451  -9.4355  -9.3276  -9.2819
    -9.2360  -9.2245  -9.2162  -9.2113  -9.2011  -9.1887  -9.1843  -9.1614
    -9.1194  -9.0851  -9.0828  -9.0303  -9.0131  -9.0094  -8.9811  -8.9605
    -7.2583  -7.2507  -7.2472  -7.2411  -7.2301  -7.2178  -7.2161  -7.1805
    -7.1526  -7.1490  -7.1389  -7.1330  -7.1193  -7.0929  -7.0593  -7.0407
    -5.8381  -5.6350  -5.3467  -5.2709  -5.1648  -5.1494  -5.1307  -5.1250
    -5.1145  -5.0889  -5.0786  -5.0701  -5.0650  -5.0515  -4.7824  -4.5874
    -2.9821  -2.9777  -2.9748  -2.9698  -2.9612  -2.9567  -2.9446  -2.9313
    -2.9165  -2.8981  -2.8855  -2.8801  -2.8756  -2.8596  -2.8413  -2.8313
    -0.9983  -0.9643  -0.9416  -0.8925  -0.8660  -0.8385  -0.8025  -0.7447
    -0.4623  -0.4093  -0.3456  -0.2731   0.1241   0.1738   0.2495   0.2558
     0.3117   0.3366   0.3601   0.3708   0.4057   0.4208   0.4454   0.4666
     0.5161   0.6000   0.7173   0.7411   0.7573   0.7650   0.9177   0.9505
     0.9624   0.9785   0.9856   0.9967   1.0040   1.0155   1.0254   1.0375
     1.0480   1.0633   1.0944   1.1083   1.1832   1.1946   1.2004   1.2126
     1.2471   1.2602   1.2661   1.2764   1.2843   1.2993   1.3390   1.3650
     1.3715   1.3847   1.4028   1.4146   1.5194   1.5489   1.5676   1.5795
     1.6040   1.6624   1.6718   1.6983   1.7748   1.7837   2.0133   2.0998

          k = 0.3777-0.1260-0.1276 (302015 PWs)   bands (ev):

   -17.8244 -17.8074 -17.8054 -17.7721 -17.7592 -17.7570 -17.7366 -17.7321
   -14.1823 -14.1733 -14.1708 -14.1667 -14.1653 -14.1645 -14.1626 -14.1577
   -14.1572 -14.1564 -14.1515 -14.1506 -14.1497 -14.1480 -14.1473 -14.1453
   -14.1283 -14.1264 -14.1220 -14.1211 -14.1208 -14.1148 -14.1142 -14.1112
   -14.1103 -14.1088 -14.1087 -14.1077 -14.1073 -14.1062 -14.1055 -14.1036
   -14.1032 -14.1032 -14.1031 -14.1029 -14.1008 -14.0999 -14.0984 -14.0980
   -10.7853 -10.7617 -10.7496 -10.7366 -10.7263 -10.7195 -10.7132 -10.6979
    -9.7101  -9.6203  -9.5180  -9.4966  -9.4497  -9.4291  -9.3290  -9.2828
    -9.2379  -9.2239  -9.2184  -9.2039  -9.2017  -9.1914  -9.1840  -9.1620
    -9.1192  -9.0863  -9.0807  -9.0311  -9.0134  -9.0089  -8.9814  -8.9604
    -7.2581  -7.2506  -7.2476  -7.2410  -7.2303  -7.2177  -7.2160  -7.1804
    -7.1530  -7.1484  -7.1387  -7.1332  -7.1193  -7.0929  -7.0593  -7.0407
    -5.8379  -5.6350  -5.3475  -5.2710  -5.1620  -5.1519  -5.1298  -5.1253
    -5.1143  -5.0889  -5.0790  -5.0701  -5.0648  -5.0511  -4.7829  -4.5871
    -2.9826  -2.9776  -2.9744  -2.9684  -2.9608  -2.9584  -2.9448  -2.9317
    -2.9167  -2.8981  -2.8844  -2.8806  -2.8762  -2.8592  -2.8409  -2.8317
    -0.9979  -0.9651  -0.9469  -0.8855  -0.8695  -0.8364  -0.8031  -0.7438
    -0.4626  -0.4090  -0.3452  -0.2727   0.1239   0.1737   0.2519   0.2558
     0.3123   0.3342   0.3585   0.3718   0.4062   0.4215   0.4447   0.4665
     0.5125   0.6017   0.7105   0.7413   0.7553   0.7804   0.9073   0.9515
     0.9565   0.9794   0.9878   0.9957   1.0087   1.0184   1.0240   1.0397
     1.0506   1.0660   1.0854   1.1102   1.1796   1.1935   1.2019   1.2162
     1.2468   1.2580   1.2697   1.2753   1.2859   1.2976   1.3346   1.3614
     1.3749   1.3889   1.4034   1.4167   1.5195   1.5506   1.5654   1.5773
     1.6042   1.6607   1.6723   1.7002   1.7690   1.7838   2.0176   2.1016

          k =-0.3777-0.1260 0.3827 (301953 PWs)   bands (ev):

   -17.8244 -17.8074 -17.8054 -17.7721 -17.7592 -17.7570 -17.7366 -17.7321
   -14.1791 -14.1732 -14.1721 -14.1682 -14.1624 -14.1619 -14.1593 -14.1580
   -14.1573 -14.1563 -14.1540 -14.1530 -14.1517 -14.1493 -14.1472 -14.1463
   -14.1283 -14.1263 -14.1220 -14.1211 -14.1208 -14.1148 -14.1142 -14.1112
   -14.1103 -14.1088 -14.1087 -14.1077 -14.1072 -14.1062 -14.1055 -14.1036
   -14.1032 -14.1032 -14.1031 -14.1029 -14.1009 -14.1000 -14.0984 -14.0980
   -10.7848 -10.7620 -10.7483 -10.7368 -10.7257 -10.7198 -10.7142 -10.6986
    -9.6630  -9.5957  -9.5848  -9.5152  -9.4759  -9.4103  -9.3939  -9.3450
    -9.2280  -9.2026  -9.1964  -9.1901  -9.1600  -9.1449  -9.1351  -9.1208
    -9.1116  -9.0984  -9.0648  -9.0504  -9.0395  -9.0172  -9.0055  -8.9917
    -7.2544  -7.2483  -7.2461  -7.2367  -7.2321  -7.2228  -7.2173  -7.1814
    -7.1525  -7.1479  -7.1385  -7.1331  -7.1202  -7.0935  -7.0597  -7.0410
    -5.6916  -5.4933  -5.4589  -5.2638  -5.2166  -5.1555  -5.1335  -5.1226
    -5.1088  -5.0874  -5.0809  -5.0745  -5.0652  -4.9954  -4.9643  -4.7754
    -2.9815  -2.9765  -2.9740  -2.9668  -2.9596  -2.9576  -2.9452  -2.9315
    -2.9171  -2.8957  -2.8858  -2.8809  -2.8757  -2.8590  -2.8383  -2.8340
    -0.9070  -0.8654  -0.8410  -0.8013  -0.6024  -0.4983  -0.4821  -0.4401
    -0.3765  -0.3543  -0.3412  -0.3186   0.0731   0.1610   0.1675   0.2109
     0.2391   0.2427   0.2660   0.2990   0.3602   0.3778   0.3861   0.4247
     0.4814   0.5408   0.5812   0.6343   0.6998   0.7226   0.7877   0.8002
     0.8234   0.8402   0.9115   0.9303   0.9484   0.9755   0.9967   1.0341
     1.0559   1.0875   1.1333   1.1543   1.1766   1.2278   1.2461   1.2551
     1.2598   1.2696   1.2904   1.3219   1.3422   1.3584   1.3666   1.3747
     1.3865   1.3992   1.4148   1.4353   1.4529   1.4672   1.4982   1.5067
     1.5283   1.5657   1.5861   1.6251   1.6604   1.7200   1.7479   1.7762

          k =-0.3777 0.1260-0.3827 (301953 PWs)   bands (ev):

   -17.8244 -17.8074 -17.8054 -17.7721 -17.7592 -17.7570 -17.7366 -17.7321
   -14.1791 -14.1732 -14.1721 -14.1682 -14.1624 -14.1619 -14.1593 -14.1580
   -14.1573 -14.1563 -14.1540 -14.1530 -14.1517 -14.1493 -14.1472 -14.1463
   -14.1283 -14.1263 -14.1220 -14.1211 -14.1208 -14.1148 -14.1142 -14.1112
   -14.1103 -14.1088 -14.1087 -14.1077 -14.1072 -14.1062 -14.1055 -14.1036
   -14.1032 -14.1032 -14.1031 -14.1029 -14.1009 -14.1000 -14.0984 -14.0980
   -10.7849 -10.7621 -10.7486 -10.7375 -10.7255 -10.7192 -10.7140 -10.6983
    -9.6694  -9.5965  -9.5784  -9.5130  -9.4660  -9.4174  -9.3934  -9.3506
    -9.2299  -9.2030  -9.1986  -9.1905  -9.1586  -9.1411  -9.1361  -9.1225
    -9.1134  -9.0922  -9.0687  -9.0481  -9.0388  -9.0185  -9.0050  -8.9912
    -7.2546  -7.2480  -7.2461  -7.2368  -7.2320  -7.2228  -7.2174  -7.1815
    -7.1520  -7.1485  -7.1387  -7.1329  -7.1202  -7.0935  -7.0597  -7.0410
    -5.6907  -5.4954  -5.4556  -5.2694  -5.2193  -5.1564  -5.1348  -5.1209
    -5.1104  -5.0893  -5.0797  -5.0721  -5.0628  -4.9944  -4.9594  -4.7766
    -2.9815  -2.9767  -2.9738  -2.9683  -2.9602  -2.9551  -2.9450  -2.9319
    -2.9171  -2.8963  -2.8854  -2.8812  -2.8758  -2.8592  -2.8386  -2.8336
    -0.9288  -0.8631  -0.8513  -0.7963  -0.6035  -0.4909  -0.4763  -0.4176
    -0.3787  -0.3464  -0.3285  -0.3043   0.0669   0.1476   0.1668   0.2029
     0.2179   0.2476   0.2741   0.2894   0.3537   0.3652   0.3879   0.4409
     0.4580   0.5471   0.6097   0.6284   0.7117   0.7305   0.7779   0.7929
     0.8114   0.8331   0.9000   0.9154   0.9550   0.9642   0.9988   1.0511
     1.0850   1.0988   1.1056   1.1443   1.2029   1.2195   1.2332   1.2414
     1.2643   1.2739   1.2847   1.3347   1.3514   1.3530   1.3683   1.3821
     1.3885   1.4031   1.4329   1.4405   1.4494   1.4618   1.4736   1.5104
     1.5305   1.5548   1.5726   1.5998   1.6322   1.7209   1.7874   1.8304

          k = 0.3777-0.1260-0.3827 (301953 PWs)   bands (ev):

   -17.8244 -17.8074 -17.8054 -17.7721 -17.7592 -17.7570 -17.7366 -17.7321
   -14.1791 -14.1732 -14.1721 -14.1682 -14.1624 -14.1619 -14.1593 -14.1580
   -14.1573 -14.1563 -14.1540 -14.1530 -14.1517 -14.1493 -14.1472 -14.1463
   -14.1283 -14.1263 -14.1220 -14.1211 -14.1208 -14.1148 -14.1142 -14.1112
   -14.1103 -14.1088 -14.1087 -14.1077 -14.1072 -14.1062 -14.1055 -14.1036
   -14.1032 -14.1032 -14.1031 -14.1029 -14.1009 -14.1000 -14.0984 -14.0980
   -10.7849 -10.7621 -10.7487 -10.7375 -10.7255 -10.7192 -10.7140 -10.6983
    -9.6688  -9.5964  -9.5806  -9.5125  -9.4649  -9.4136  -9.3971  -9.3508
    -9.2309  -9.2023  -9.1967  -9.1923  -9.1580  -9.1437  -9.1363  -9.1212
    -9.1105  -9.0956  -9.0630  -9.0512  -9.0403  -9.0169  -9.0065  -8.9907
    -7.2543  -7.2476  -7.2468  -7.2366  -7.2324  -7.2227  -7.2174  -7.1814
    -7.1524  -7.1479  -7.1385  -7.1330  -7.1202  -7.0935  -7.0597  -7.0410
    -5.6903  -5.4945  -5.4573  -5.2692  -5.2219  -5.1546  -5.1343  -5.1205
    -5.1090  -5.0892  -5.0797  -5.0711  -5.0628  -4.9943  -4.9625  -4.7758
    -2.9819  -2.9765  -2.9736  -2.9669  -2.9595  -2.9569  -2.9453  -2.9323
    -2.9172  -2.8963  -2.8830  -2.8828  -2.8765  -2.8588  -2.8375  -2.8345
    -0.9281  -0.8647  -0.8536  -0.7946  -0.6024  -0.4861  -0.4821  -0.4217
    -0.3768  -0.3417  -0.3343  -0.2959   0.0671   0.1477   0.1668   0.2013
     0.2138   0.2463   0.2700   0.2994   0.3448   0.3728   0.3850   0.4378
     0.4635   0.5424   0.6046   0.6379   0.7143   0.7263   0.7760   0.7934
     0.8163   0.8280   0.8963   0.9158   0.9501   0.9765   1.0047   1.0522
     1.0830   1.0962   1.1048   1.1357   1.1952   1.2260   1.2352   1.2557
     1.2600   1.2754   1.2816   1.3332   1.3484   1.3515   1.3706   1.3791
     1.3944   1.4023   1.4332   1.4371   1.4497   1.4627   1.4757   1.5066
     1.5295   1.5502   1.5674   1.6108   1.6286   1.7279   1.7836   1.8326

          k =-0.3777-0.3779 0.1276 (301973 PWs)   bands (ev):

   -17.8244 -17.8074 -17.8054 -17.7721 -17.7592 -17.7570 -17.7366 -17.7321
   -14.1820 -14.1724 -14.1685 -14.1666 -14.1656 -14.1639 -14.1629 -14.1589
   -14.1553 -14.1551 -14.1517 -14.1508 -14.1503 -14.1493 -14.1480 -14.1479
   -14.1283 -14.1264 -14.1220 -14.1211 -14.1208 -14.1148 -14.1143 -14.1112
   -14.1103 -14.1088 -14.1087 -14.1077 -14.1073 -14.1063 -14.1055 -14.1035
   -14.1032 -14.1032 -14.1031 -14.1030 -14.1008 -14.0999 -14.0984 -14.0980
   -10.7852 -10.7617 -10.7493 -10.7364 -10.7256 -10.7206 -10.7133 -10.6981
    -9.6542  -9.6057  -9.5870  -9.4981  -9.4772  -9.4169  -9.3895  -9.3455
    -9.2321  -9.2192  -9.2102  -9.2062  -9.1472  -9.1423  -9.1284  -9.1192
    -9.1079  -9.0919  -9.0726  -9.0453  -9.0320  -9.0159  -9.0030  -8.9915
    -7.2580  -7.2504  -7.2479  -7.2412  -7.2294  -7.2194  -7.2154  -7.1807
    -7.1525  -7.1481  -7.1392  -7.1335  -7.1192  -7.0927  -7.0594  -7.0407
    -5.7092  -5.5176  -5.4951  -5.3136  -5.1840  -5.1511  -5.1301  -5.1195
    -5.1033  -5.0831  -5.0766  -5.0695  -5.0589  -4.9544  -4.9303  -4.7464
    -2.9815  -2.9770  -2.9743  -2.9668  -2.9597  -2.9557  -2.9475  -2.9284
    -2.9186  -2.8954  -2.8898  -2.8813  -2.8742  -2.8590  -2.8429  -2.8324
    -0.9550  -0.9236  -0.9209  -0.8577  -0.5559  -0.5239  -0.5022  -0.4224
    -0.3814  -0.3636  -0.3414  -0.2992   0.0889   0.1750   0.1855   0.2297
     0.2761   0.2871   0.2944   0.3145   0.3275   0.3501   0.3600   0.4178
[...]
    -9.3209  -9.3061  -9.2798  -9.2721  -9.2661  -9.2520  -9.2431  -9.2279
    -9.2219  -9.2053  -9.2010  -9.1868  -9.1736  -9.1687  -9.1646  -9.1353
    -7.3146  -7.3010  -7.2731  -7.2665  -7.2609  -7.2594  -7.2521  -7.2414
    -7.1255  -7.1223  -7.1198  -7.1124  -7.0980  -7.0893  -7.0819  -7.0699
    -5.6598  -5.5031  -5.4955  -5.4327  -5.3199  -5.2995  -5.2875  -5.1940
    -5.1845  -5.1640  -5.1478  -5.1423  -5.1370  -5.1338  -5.1269  -5.0582
    -3.0564  -3.0403  -3.0333  -3.0271  -3.0220  -3.0182  -3.0165  -2.9972
    -2.9785  -2.9719  -2.9706  -2.9687  -2.9619  -2.9611  -2.9505  -2.9467
    -0.8475  -0.7781  -0.6403  -0.6252  -0.6098  -0.5431  -0.4691  -0.4635
    -0.4384  -0.4284  -0.2205  -0.2074  -0.1880  -0.1503  -0.0130  -0.0048
     0.0693   0.0740   0.0780   0.1143   0.1627   0.1784   0.2335   0.2720
     0.3653   0.4031   0.5313   0.5471   0.5610   0.5709   0.5829   0.5995
     0.6520   0.6603   0.6658   0.6918   0.7359   0.7404   0.7617   0.7965
     0.8825   0.9087   0.9342   0.9477   0.9559   1.0355   1.0407   1.1243
     1.1773   1.2138   1.2224   1.2341   1.2377   1.2433   1.2498   1.2634
     1.2811   1.2859   1.2942   1.3188   1.3423   1.3560   1.3653   1.3791
     1.3814   1.3862   1.3902   1.3986   1.4080   1.4199   1.5979   1.6027

          k = 0.3763-0.3748-0.3817 (302021 PWs)   bands (ev):

   -17.8146 -17.8105 -17.7724 -17.7643 -17.7635 -17.7552 -17.7551 -17.7530
   -14.3452 -14.3399 -14.3343 -14.3340 -14.3275 -14.3216 -14.3205 -14.3184
   -14.3156 -14.3152 -14.3105 -14.3095 -14.3085 -14.3030 -14.3020 -14.3012
   -14.3001 -14.2983 -14.2976 -14.2969 -14.2890 -14.2883 -14.2850 -14.2821
   -14.2815 -14.2786 -14.2772 -14.2760 -14.2734 -14.2725 -14.2719 -14.2690
   -14.2668 -14.2647 -14.2632 -14.2631 -14.2631 -14.2589 -14.2542 -14.2510
   -10.8280 -10.8181 -10.7935 -10.7904 -10.7898 -10.7879 -10.7812 -10.7759
    -9.7205  -9.6537  -9.6404  -9.6374  -9.5881  -9.5815  -9.5765  -9.5174
    -9.3208  -9.3061  -9.2791  -9.2735  -9.2659  -9.2506  -9.2451  -9.2292
    -9.2204  -9.2048  -9.2009  -9.1863  -9.1733  -9.1679  -9.1655  -9.1360
    -7.3146  -7.3009  -7.2730  -7.2664  -7.2607  -7.2597  -7.2519  -7.2414
    -7.1254  -7.1224  -7.1199  -7.1124  -7.0980  -7.0892  -7.0819  -7.0699
    -5.6594  -5.5046  -5.4934  -5.4337  -5.3197  -5.2962  -5.2923  -5.1933
    -5.1847  -5.1637  -5.1485  -5.1403  -5.1378  -5.1335  -5.1269  -5.0582
    -3.0566  -3.0399  -3.0331  -3.0278  -3.0224  -3.0179  -3.0160  -2.9970
    -2.9787  -2.9742  -2.9685  -2.9675  -2.9636  -2.9603  -2.9506  -2.9466
    -0.8513  -0.7774  -0.6451  -0.6260  -0.6213  -0.5379  -0.4666  -0.4577
    -0.4314  -0.4135  -0.2259  -0.2005  -0.1888  -0.1436  -0.0330  -0.0062
     0.0583   0.0687   0.0763   0.1161   0.1666   0.1898   0.2360   0.2705
     0.3635   0.4036   0.5330   0.5430   0.5577   0.5668   0.5745   0.6072
     0.6524   0.6574   0.6699   0.6963   0.7374   0.7400   0.7654   0.7946
     0.8802   0.9087   0.9329   0.9464   0.9545   1.0370   1.0465   1.1282
     1.1780   1.2133   1.2223   1.2299   1.2405   1.2472   1.2543   1.2589
     1.2790   1.2863   1.2894   1.3167   1.3379   1.3591   1.3609   1.3779
     1.3825   1.3856   1.3933   1.3988   1.4136   1.4203   1.5977   1.6036

     highest occupied level (ev):     2.0784

!    total energy              =  -16491.04181197 Ry
     Harris-Foulkes estimate   =  -16491.04181197 Ry
     estimated scf accuracy    <          2.8E-09 Ry

     total all-electron energy =   -677247.711076 Ry

     The total energy is the sum of the following terms:

     one-electron contribution =    -857.67877594 Ry
     hartree contribution      =     612.47323121 Ry
     xc contribution           =    -755.63986696 Ry
     ewald contribution        =   -1135.36825205 Ry
     DFT-D3 Dispersion         =      -0.60523403 Ry
     one-center paw contrib.   =  -14354.22291419 Ry

     convergence has been achieved in   9 iterations

     Forces acting on atoms (cartesian axes, Ry/au):

     atom    1 type  1   force =     0.00094203    0.00190649   -0.00115826
     atom    2 type  1   force =     0.00221056    0.00197310   -0.00077904
     atom    3 type  1   force =     0.00081040    0.00171301   -0.00013403
     atom    4 type  1   force =     0.00194125    0.00018577   -0.00156732
     atom    5 type  1   force =     0.00160000    0.00077837   -0.00192337
     atom    6 type  1   force =     0.00146237    0.00180858    0.00029539
     atom    7 type  1   force =     0.00147522    0.00093802   -0.00000235
     atom    8 type  1   force =     0.00012862    0.00237367   -0.00229817
     atom    9 type  2   force =     0.00042514   -0.00079867   -0.00003324
     atom   10 type  2   force =    -0.00124466    0.00062792    0.00069344
     atom   11 type  2   force =    -0.00047456    0.00010722   -0.00005712
     atom   12 type  2   force =     0.00028027   -0.00063211    0.00041416
     atom   13 type  2   force =    -0.00090717    0.00183308    0.00041342
     atom   14 type  2   force =     0.00001757   -0.00035499   -0.00163273
     atom   15 type  2   force =     0.00132940   -0.00020138    0.00073317
     atom   16 type  2   force =    -0.00088592   -0.00019963   -0.00046582
     atom   17 type  2   force =    -0.00037726   -0.00008923   -0.00083285
     atom   18 type  2   force =     0.00289691   -0.00066776    0.00107063
     atom   19 type  2   force =    -0.00070118   -0.00034410    0.00070641
     atom   20 type  2   force =    -0.00063738    0.00003456   -0.00029502
     atom   21 type  2   force =     0.00132715   -0.00040523    0.00062922
     atom   22 type  2   force =    -0.00054897    0.00083446   -0.00028757
     atom   23 type  2   force =     0.00001700   -0.00004695   -0.00071177
     atom   24 type  2   force =     0.00045680   -0.00083644    0.00013864
     atom   25 type  2   force =    -0.00045599    0.00015533    0.00063246
     atom   26 type  2   force =    -0.00032922   -0.00034046   -0.00065879
     atom   27 type  2   force =     0.00111717   -0.00061727   -0.00041474
     atom   28 type  2   force =    -0.00103349    0.00064229    0.00035659
     atom   29 type  2   force =    -0.00041115    0.00047575   -0.00071922
     atom   30 type  2   force =    -0.00002449   -0.00068044    0.00045832
     atom   31 type  2   force =    -0.00107708   -0.00024230    0.00075986
     atom   32 type  2   force =    -0.00005751   -0.00002605   -0.00015106
     atom   33 type  3   force =     0.00066944    0.00024489   -0.00051137
     atom   34 type  3   force =    -0.00025646   -0.00024321    0.00063419
     atom   35 type  3   force =     0.00032109   -0.00010203   -0.00015109
     atom   36 type  3   force =     0.00137006    0.00182552    0.00077516
     atom   37 type  3   force =    -0.00024591    0.00039302    0.00014482
     atom   38 type  3   force =     0.00031762   -0.00012288    0.00007902
     atom   39 type  3   force =    -0.00018300    0.00039006   -0.00018431
     atom   40 type  3   force =     0.00151268    0.00136624    0.00050281
     atom   41 type  4   force =     0.00131917   -0.00184507   -0.00167881
     atom   42 type  4   force =    -0.00029339   -0.00034609   -0.00099894
     atom   43 type  4   force =     0.00055197   -0.00090521    0.00078953
     atom   44 type  4   force =    -0.00188701   -0.00083319   -0.00145648
     atom   45 type  4   force =     0.00040763   -0.00017238    0.00068771
     atom   46 type  4   force =    -0.00099496    0.00081220   -0.00251307
     atom   47 type  4   force =    -0.00022245   -0.00088360    0.00158073
     atom   48 type  4   force =    -0.00172352   -0.00224583   -0.00045640
     atom   49 type  5   force =    -0.00100179    0.00094879    0.00099606
     atom   50 type  5   force =    -0.00180502   -0.00099406    0.00178362
     atom   51 type  5   force =    -0.00061396    0.00120006    0.00054671
     atom   52 type  5   force =    -0.00025322   -0.00006765   -0.00198472
     atom   53 type  5   force =     0.00017101    0.00092324    0.00192528
     atom   54 type  5   force =     0.00045835   -0.00210442   -0.00048944
     atom   55 type  5   force =     0.00022425   -0.00098207    0.00094646
     atom   56 type  5   force =     0.00018131    0.00003731    0.00086851
     atom   57 type  5   force =    -0.00030893   -0.00023704    0.00017193
     atom   58 type  5   force =    -0.00068078    0.00006535    0.00102700
     atom   59 type  5   force =     0.00011601   -0.00055804   -0.00081412
     atom   60 type  5   force =     0.00004792    0.00026901   -0.00075607
     atom   61 type  5   force =     0.00040670    0.00004576    0.00106479
     atom   62 type  5   force =    -0.00173031   -0.00035799   -0.00250925
     atom   63 type  5   force =     0.00018211    0.00077615    0.00201704
     atom   64 type  5   force =    -0.00215300    0.00193195   -0.00045238
     atom   65 type  5   force =     0.00083617   -0.00103195   -0.00024541
     atom   66 type  5   force =     0.00065326   -0.00195805   -0.00028578
     atom   67 type  5   force =    -0.00036732   -0.00263727   -0.00040439
     atom   68 type  5   force =    -0.00257679    0.00205840    0.00144558
     atom   69 type  5   force =     0.00115924   -0.00109596    0.00029080
     atom   70 type  5   force =    -0.00074743   -0.00072369    0.00003175
     atom   71 type  5   force =     0.00271697   -0.00120088   -0.00088657
     atom   72 type  5   force =    -0.00128875    0.00222022    0.00121619
     atom   73 type  5   force =    -0.00053468   -0.00088539    0.00005782
     atom   74 type  5   force =     0.00009020   -0.00048479    0.00042961
     atom   75 type  5   force =    -0.00122504    0.00106740    0.00035454
     atom   76 type  5   force =    -0.00063960   -0.00007836    0.00023000
     atom   77 type  5   force =     0.00001220   -0.00042373   -0.00010198
     atom   78 type  5   force =     0.00028726   -0.00048859   -0.00052984
     atom   79 type  5   force =    -0.00125098    0.00035193    0.00139396
     atom   80 type  5   force =     0.00189878   -0.00078008    0.00086617
     atom   81 type  5   force =    -0.00003265   -0.00114457    0.00067716
     atom   82 type  5   force =     0.00054137   -0.00208645   -0.00016133
     atom   83 type  5   force =    -0.00140202    0.00080075   -0.00003723
     atom   84 type  5   force =    -0.00051375    0.00105447    0.00039343
     atom   85 type  5   force =    -0.00164374    0.00004318    0.00026107
     atom   86 type  5   force =    -0.00014679    0.00020535    0.00044709
     atom   87 type  5   force =     0.00074375   -0.00094403   -0.00064542
     atom   88 type  5   force =     0.00107925   -0.00059644   -0.00110494
     atom   89 type  5   force =     0.00004224   -0.00025262    0.00028916
     atom   90 type  5   force =    -0.00096836    0.00105583    0.00015637
     atom   91 type  5   force =    -0.00146043   -0.00129318   -0.00249887
     atom   92 type  5   force =    -0.00098034    0.00117047    0.00134160
     atom   93 type  5   force =     0.00139326   -0.00131516    0.00166984
     atom   94 type  5   force =    -0.00098397   -0.00002754   -0.00075122
     atom   95 type  5   force =     0.00304349   -0.00140798    0.00058246
     atom   96 type  5   force =    -0.00091025    0.00269531    0.00075422

     Total force =     0.017942     Total SCF correction =     0.000127


     Computing stress (Cartesian axis) and pressure

          total   stress  (Ry/bohr**3)                   (kbar)     P=    0.29
   0.00000395   0.00001130   0.00000130          0.58      1.66      0.19
   0.00001130  -0.00000125   0.00000047          1.66     -0.18      0.07
   0.00000130   0.00000047   0.00000315          0.19      0.07      0.46


     number of scf cycles    =  17
     number of bfgs steps    =  16

     enthalpy old            =  -16491.0412187843 Ry
     enthalpy new            =  -16491.0418119657 Ry

     CASE: enthalpy_new < enthalpy_old

     new trust radius        =       0.0165169737 bohr
     new conv_thr            =       0.0000000059 Ry

     new unit-cell volume =  13788.90168 a.u.^3 (  2043.30439 Ang^3 )
     density =      4.03563 g/cm^3

CELL_PARAMETERS (alat= 24.15259000)
   0.996427610   0.000000000   0.000000000
   0.000000000   1.000080284   0.000000000
   0.000000000   0.000000000   0.982105016

ATOMIC_POSITIONS (crystal)
Pb      -0.001587090  -0.002482957   0.000143997
Pb      -0.002953092  -0.002152238   0.500190854
Pb      -0.001229501   0.497779589  -0.001389051
Pb      -0.001382438   0.498228460   0.499008808
Pb       0.498575176  -0.001298023   0.000054455
Pb       0.499379081  -0.003176249   0.499075547
Pb       0.498583713   0.498811637  -0.001053860
Pb       0.499695221   0.496817878   0.499167333
I        0.253792357   0.030922172  -0.005894217
I        0.031097718   0.255489633  -0.010907686
I        0.000107091   0.005507342   0.248072592
I        0.253872260   0.024244796   0.491449999
I        0.034322710   0.254231928   0.493780344
I       -0.003716358   0.007648228   0.748529375
I        0.253254147   0.531659184  -0.008173892
I        0.028244102   0.755514965  -0.008065945
I        0.005716775   0.499364789   0.247160801
I        0.253575195   0.534729324   0.490715388
I        0.024240179   0.754879940   0.490934143
I        0.000626341   0.505265230   0.747098099
I        0.753148933   0.027181759  -0.007491848
I        0.530785678   0.254610610  -0.007533184
I        0.502105069   0.002648673   0.247804366
I        0.753606905   0.033916326   0.492375224
I        0.526669260   0.253848396   0.489727132
I        0.499109787   0.005871235   0.747776096
I        0.753337582   0.528387630  -0.006404959
I        0.530458054   0.754515742  -0.007799885
I        0.501903750   0.501614273   0.247440581
I        0.753972695   0.525145743   0.489337618
I        0.535443973   0.754256505   0.491474131
I        0.498871887   0.503846273   0.747259927
C        0.285999733   0.287512867   0.251864309
C        0.284608109   0.287664720   0.749838660
C        0.287941349   0.784878809   0.249490532
C        0.287631655   0.784096593   0.752924574
C        0.787532875   0.286777799   0.249398905
C        0.785818692   0.287489437   0.752635011
C        0.787714725   0.784402828   0.250630419
C        0.782392694   0.787073116   0.749812510
N        0.203686945   0.202772920   0.257090993
N        0.203729045   0.201547058   0.754461672
N        0.204915180   0.701245844   0.255743356
N        0.202044231   0.702858342   0.754397421
N        0.704767508   0.202247684   0.252731502
N        0.703774174   0.202361223   0.755302427
N        0.701551548   0.703573761   0.254079876
N        0.700459837   0.702499398   0.755853653
H        0.179490476   0.178242115   0.182612125
H        0.137607257   0.227082855   0.298893199
H        0.230227029   0.137277037   0.297612718
H        0.307839878   0.299960084   0.168574080
H        0.354777318   0.262213101   0.297389358
H        0.253667474   0.359477622   0.285988389
H        0.182524182   0.175688769   0.679429187
H        0.135949427   0.225543022   0.793470974
H        0.230457165   0.137690724   0.797816332
H        0.300690873   0.306840627   0.666512502
H        0.356490226   0.261072928   0.789079509
H        0.254053111   0.356536789   0.791185971
H        0.190450571   0.666749306   0.182637159
H        0.134639431   0.730363550   0.284707448
H        0.225725271   0.641799835   0.308459441
H        0.294277297   0.811897745   0.167053963
H        0.362858096   0.751810346   0.275609084
H        0.265563772   0.849708508   0.301846461
H        0.178753227   0.681237558   0.678795693
H        0.135927343   0.728237859   0.795018622
H        0.224792261   0.635772399   0.794611432
H        0.301366225   0.808772761   0.670650932
H        0.358957796   0.750245704   0.786997014
H        0.262926566   0.850867899   0.801108450
H        0.679550095   0.181037191   0.177415552
H        0.639292884   0.225359781   0.296027512
H        0.731509549   0.135319187   0.290554073
H        0.801219788   0.309102337   0.166434117
H        0.859981301   0.256554549   0.284904766
H        0.759559954   0.354255867   0.294976512
H        0.675454132   0.184587228   0.680300757
H        0.639995902   0.222482291   0.802738080
H        0.732807410   0.133817541   0.788096446
H        0.809301117   0.300643705   0.669875548
H        0.853538627   0.262860036   0.800234238
H        0.752008022   0.359008038   0.786090712
H        0.674179658   0.685161943   0.178815425
H        0.637905558   0.728183938   0.299387213
H        0.725835436   0.634753556   0.289908655
H        0.808802655   0.798681142   0.167499380
H        0.855702759   0.755133313   0.294843574
H        0.759288038   0.856543888   0.287496327
H        0.676104445   0.678064228   0.681411571
H        0.634449610   0.726477971   0.797574279
H        0.726957089   0.637349807   0.796849933
H        0.795949962   0.807328701   0.666413048
H        0.854915146   0.758477970   0.786000437
H        0.754569137   0.855481456   0.793656699



     Writing output data file MAPbI_vcrelax_PAW2.save/
     NEW-OLD atomic charge density approx. for the potential
     extrapolated charge  399.74914, renormalised to  400.00000

     total cpu time spent up to now is   248023.8 secs

     Self-consistent Calculation

     iteration #  1     ecut=   120.00 Ry     beta= 0.70
     Davidson diagonalization with overlap
     ethr =  1.00E-06,  avg # of iterations =  4.0

     total cpu time spent up to now is   250419.7 secs

     total energy              =  -16491.04161982 Ry
     Harris-Foulkes estimate   =  -16491.43571598 Ry
     estimated scf accuracy    <       0.00073509 Ry

     iteration #  2     ecut=   120.00 Ry     beta= 0.70
     Davidson diagonalization with overlap
     ethr =  1.84E-07,  avg # of iterations =  3.0

     total cpu time spent up to now is   252341.7 secs

     total energy              =  -16491.04215549 Ry
     Harris-Foulkes estimate   =  -16491.04256966 Ry
     estimated scf accuracy    <       0.00093331 Ry

     iteration #  3     ecut=   120.00 Ry     beta= 0.70
     Davidson diagonalization with overlap
     ethr =  1.84E-07,  avg # of iterations =  2.0

     total cpu time spent up to now is   253728.4 secs

     total energy              =  -16491.04226752 Ry
     Harris-Foulkes estimate   =  -16491.04227554 Ry
     estimated scf accuracy    <       0.00009217 Ry

     iteration #  4     ecut=   120.00 Ry     beta= 0.70
     Davidson diagonalization with overlap
     ethr =  2.30E-08,  avg # of iterations =  3.0

     total cpu time spent up to now is   254813.7 secs

     total energy              =  -16491.04227552 Ry
     Harris-Foulkes estimate   =  -16491.04227560 Ry
     estimated scf accuracy    <       0.00004079 Ry

     iteration #  5     ecut=   120.00 Ry     beta= 0.70
     Davidson diagonalization with overlap
     ethr =  1.02E-08,  avg # of iterations =  2.0

     total cpu time spent up to now is   255873.5 secs

     total energy              =  -16491.04227686 Ry
     Harris-Foulkes estimate   =  -16491.04227777 Ry
     estimated scf accuracy    <       0.00001665 Ry

     iteration #  6     ecut=   120.00 Ry     beta= 0.70
     Davidson diagonalization with overlap
     ethr =  4.16E-09,  avg # of iterations =  3.0

     total cpu time spent up to now is   257220.6 secs

     total energy              =  -16491.04227913 Ry
     Harris-Foulkes estimate   =  -16491.04227939 Ry
     estimated scf accuracy    <       0.00000130 Ry

     iteration #  7     ecut=   120.00 Ry     beta= 0.70
     Davidson diagonalization with overlap
     ethr =  3.24E-10,  avg # of iterations =  3.4

     total cpu time spent up to now is   258731.5 secs

     total energy              =  -16491.04227945 Ry
     Harris-Foulkes estimate   =  -16491.04227953 Ry
     estimated scf accuracy    <       0.00000022 Ry

     iteration #  8     ecut=   120.00 Ry     beta= 0.70
     Davidson diagonalization with overlap
