
     Program PWSCF v.6.4 starts on 10Feb2020 at 22:11:35 

     This program is part of the open-source Quantum ESPRESSO suite
     for quantum simulation of materials; please cite
         "P. Giannozzi et al., J. Phys.:Condens. Matter 21 395502 (2009);
         "P. Giannozzi et al., J. Phys.:Condens. Matter 29 465901 (2017);
          URL http://www.quantum-espresso.org", 
     in publications or presentations arising from this work. More details at
     http://www.quantum-espresso.org/quote

     Parallel version (MPI), running on    48 processors

     MPI processes distributed on     1 nodes
     K-points division:     npool     =       4
     R & G space division:  proc/nbgrp/npool/nimage =      12
     Waiting for input...
     Reading input from standard input
     Message from routine read_cards :
     DEPRECATED: no units specified in CELL_PARAMETERS card

     Current dimensions of program PWSCF are:
     Max number of different atomic species (ntypx) = 10
     Max number of k-points (npk) =  40000
     Max angular momentum in pseudopotentials (lmaxx) =  3
               file Pb.pbe-dn-kjpaw_psl.1.0.0.UPF: wavefunction(s)  6S 6P 5D renormalized
               file I.pbe-n-kjpaw_psl.1.0.0.UPF: wavefunction(s)  5S renormalized
               file C.pbe-n-kjpaw_psl.1.0.0.UPF: wavefunction(s)  2S 2P renormalized
               file N.pbe-n-kjpaw_psl.1.0.0.UPF: wavefunction(s)  2S renormalized
               file H.pbe-kjpaw_psl.1.0.0.UPF: wavefunction(s)  1S renormalized

     --------------------------------------------
     Parameters for DFT-D3 Dispersion Correction:
     --------------------------------------------
       Reference C6 values for interpolation: 

         atom   Coordination number   C6
         H          0.912             6.05
         H          0.000            15.18
         C          0.000            98.23
         C          0.987            86.49
         C          1.998            58.72
         C          2.999            51.56
         C          3.984            36.41
         N          0.000            50.54
         N          0.994            44.25
         N          2.014            39.35
         N          2.990            31.16
         I          0.000           703.93
         I          0.997           717.00
         Pb         0.000          1477.63
         Pb         0.938          1266.00
         Pb         1.936          1088.91
         Pb         2.908          1048.37
         Pb         3.910           910.57

       Values used:

         atom   Coordination number  R0_AB[au]  C6      C8
         Pb         4.906            4.041    910.57 144158.24
         Pb         4.907            4.041    910.57 144158.24
         Pb         4.914            4.041    910.57 144158.23
         Pb         4.914            4.041    910.57 144158.24
         Pb         4.927            4.041    910.57 144158.22
         Pb         4.918            4.041    910.57 144158.23
         Pb         4.924            4.041    910.57 144158.23
         Pb         4.911            4.041    910.57 144158.24
         I          1.972            3.532    717.00  65856.00
         I          1.952            3.532    717.00  65856.00
         I          2.030            3.532    717.00  65856.00
         I          1.962            3.532    717.00  65856.00
         I          1.946            3.532    717.00  65855.99
         I          2.034            3.532    717.00  65856.00
         I          1.982            3.532    717.00  65856.00
         I          1.944            3.532    717.00  65855.99
         I          2.034            3.532    717.00  65856.00
         I          1.980            3.532    717.00  65856.00
         I          1.949            3.532    717.00  65855.99
         I          2.034            3.532    717.00  65856.00
         I          1.987            3.532    717.00  65856.00
         I          1.961            3.532    717.00  65856.00
         I          2.040            3.532    717.00  65856.00
         I          1.991            3.532    717.00  65856.00
         I          1.966            3.532    717.00  65856.00
         I          2.025            3.532    717.00  65856.00
         I          1.979            3.532    717.00  65856.00
         I          1.964            3.532    717.00  65856.00
         I          2.042            3.532    717.00  65856.00
         I          1.990            3.532    717.00  65856.00
         I          1.952            3.532    717.00  65856.00
         I          2.027            3.532    717.00  65856.00
         C          4.021            2.750     36.62   1058.98
         C          4.020            2.750     36.62   1059.01
         C          4.021            2.750     36.62   1059.00
         C          4.019            2.750     36.62   1059.08
         C          4.021            2.750     36.62   1058.98
         C          4.021            2.750     36.62   1059.00
         C          4.020            2.750     36.62   1059.03
         C          4.019            2.750     36.62   1059.10
         N          4.045            2.478     31.16    687.49
         N          4.045            2.478     31.16    687.49
         N          4.046            2.478     31.16    687.49
         N          4.045            2.478     31.16    687.49
         N          4.044            2.478     31.16    687.49
         N          4.044            2.478     31.16    687.49
         N          4.046            2.478     31.16    687.49
         N          4.045            2.478     31.16    687.49
         H          1.022            2.062      6.16     74.50
         H          1.038            2.062      6.15     74.35
         H          1.033            2.062      6.15     74.39
         H          1.005            2.062      6.18     74.67
         H          1.008            2.062      6.17     74.63
         H          1.007            2.062      6.18     74.65
         H          1.022            2.062      6.16     74.49
         H          1.035            2.062      6.15     74.37
         H          1.034            2.062      6.15     74.39
         H          1.005            2.062      6.18     74.67
         H          1.007            2.062      6.18     74.65
         H          1.007            2.062      6.18     74.65
         H          1.023            2.062      6.16     74.48
         H          1.024            2.062      6.16     74.48
         H          1.056            2.062      6.14     74.21
         H          1.005            2.062      6.18     74.67
         H          1.006            2.062      6.18     74.65
         H          1.008            2.062      6.17     74.64
         H          1.022            2.062      6.16     74.49
         H          1.033            2.062      6.15     74.39
         H          1.035            2.062      6.15     74.38
         H          1.005            2.062      6.18     74.67
         H          1.007            2.062      6.18     74.65
         H          1.006            2.062      6.18     74.65
         H          1.023            2.062      6.16     74.49
         H          1.033            2.062      6.15     74.39
         H          1.032            2.062      6.16     74.40
         H          1.005            2.062      6.18     74.66
         H          1.006            2.062      6.18     74.65
         H          1.008            2.062      6.17     74.64
         H          1.022            2.062      6.16     74.50
         H          1.040            2.062      6.15     74.33
         H          1.027            2.062      6.16     74.45
         H          1.005            2.062      6.18     74.67
         H          1.008            2.062      6.17     74.64
         H          1.006            2.062      6.18     74.65
         H          1.023            2.062      6.16     74.48
         H          1.042            2.062      6.15     74.31
         H          1.029            2.062      6.16     74.43
         H          1.005            2.062      6.18     74.66
         H          1.008            2.062      6.17     74.64
         H          1.006            2.062      6.18     74.65
         H          1.022            2.062      6.16     74.49
         H          1.038            2.062      6.15     74.35
         H          1.032            2.062      6.15     74.40
         H          1.005            2.062      6.18     74.67
         H          1.006            2.062      6.18     74.65
         H          1.007            2.062      6.17     74.65

         Molecular C6 ( Ry / a.u.^6 ) =   1196667.53


     Subspace diagonalization in iterative solution of the eigenvalue problem:
     a serial algorithm will be used


     Parallelization info
     --------------------
     sticks:   dense  smooth     PW     G-vecs:    dense   smooth      PW
     Min        1849    1849    477               204179   204179   26733
     Max        1850    1850    478               204180   204180   26736
     Sum       22199   22199   5729              2450159  2450159  320805



     bravais-lattice index     =            0
     lattice parameter (alat)  =      24.1526  a.u.
     unit-cell volume          =   13797.7665 (a.u.)^3
     number of atoms/cell      =           96
     number of atomic types    =            5
     number of electrons       =       400.00
     number of Kohn-Sham states=          200
     kinetic-energy cutoff     =     120.0000  Ry
     charge density cutoff     =     480.0000  Ry
     convergence threshold     =      1.0E-07
     mixing beta               =       0.7000
     number of iterations used =            8  plain     mixing
     Exchange-correlation      = SLA PW PBX PBC ( 1  4  3  4 0 0)
     nstep                     =          150


     celldm(1)=  24.152590  celldm(2)=   0.000000  celldm(3)=   0.000000
     celldm(4)=   0.000000  celldm(5)=   0.000000  celldm(6)=   0.000000

     crystal axes: (cart. coord. in units of alat)
               a(1) = (   0.996780   0.000000   0.000000 )  
               a(2) = (   0.000000   0.999796   0.000000 )  
               a(3) = (   0.000000   0.000000   0.982668 )  

     reciprocal axes: (cart. coord. in units 2 pi/alat)
               b(1) = (  1.003230  0.000000  0.000000 )  
               b(2) = (  0.000000  1.000204  0.000000 )  
               b(3) = (  0.000000  0.000000  1.017638 )  


     PseudoPot. # 1 for Pb read from file:
     ../Pseudopotential/Pb.pbe-dn-kjpaw_psl.1.0.0.UPF
     MD5 check sum: 684fc8fbce61a260853528575e4d9ab7
     Pseudo is Projector augmented-wave + core cor, Zval = 14.0
     Generated using "atomic" code by A. Dal Corso v.6.3
     Shape of augmentation charge: PSQ
     Using radial grid of 1281 points,  6 beta functions with: 
                l(1) =   0
                l(2) =   0
                l(3) =   1
                l(4) =   1
                l(5) =   2
                l(6) =   2
     Q(r) pseudized with 0 coefficients 


     PseudoPot. # 2 for I  read from file:
     ../Pseudopotential/I.pbe-n-kjpaw_psl.1.0.0.UPF
     MD5 check sum: cd3d296c3308a581e1559a0c8a554cb5
     Pseudo is Projector augmented-wave + core cor, Zval =  7.0
     Generated using "atomic" code by A. Dal Corso v.6.3
     Shape of augmentation charge: PSQ
     Using radial grid of 1247 points,  6 beta functions with: 
                l(1) =   0
                l(2) =   0
                l(3) =   1
                l(4) =   1
                l(5) =   2
                l(6) =   2
     Q(r) pseudized with 0 coefficients 


     PseudoPot. # 3 for C  read from file:
     ../Pseudopotential/C.pbe-n-kjpaw_psl.1.0.0.UPF
     MD5 check sum: 5f16ad9a65e90284d1d834d4ab3b0f7d
     Pseudo is Projector augmented-wave + core cor, Zval =  4.0
     Generated using "atomic" code by A. Dal Corso v.6.3
     Shape of augmentation charge: PSQ
     Using radial grid of 1073 points,  4 beta functions with: 
                l(1) =   0
                l(2) =   0
                l(3) =   1
                l(4) =   1
     Q(r) pseudized with 0 coefficients 


     PseudoPot. # 4 for N  read from file:
     ../Pseudopotential/N.pbe-n-kjpaw_psl.1.0.0.UPF
     MD5 check sum: 14c48229446f9f2d411169a3abcbc3fa
     Pseudo is Projector augmented-wave + core cor, Zval =  5.0
     Generated using "atomic" code by A. Dal Corso v.6.3
     Shape of augmentation charge: PSQ
     Using radial grid of 1085 points,  4 beta functions with: 
                l(1) =   0
                l(2) =   0
                l(3) =   1
                l(4) =   1
     Q(r) pseudized with 0 coefficients 


     PseudoPot. # 5 for H  read from file:
     ../Pseudopotential/H.pbe-kjpaw_psl.1.0.0.UPF
     MD5 check sum: d81a744832360e4a8af0b0b5b123bc2a
     Pseudo is Projector augmented-wave, Zval =  1.0
     Generated using "atomic" code by A. Dal Corso v.6.3MaX
     Shape of augmentation charge: PSQ
     Using radial grid of  929 points,  2 beta functions with: 
                l(1) =   0
                l(2) =   0
     Q(r) pseudized with 0 coefficients 


     atomic species   valence    mass     pseudopotential
        Pb            14.00   207.97600     Pb( 1.00)
        I              7.00   126.90400     I ( 1.00)
        C              4.00    12.00000     C ( 1.00)
        N              5.00    14.00300     N ( 1.00)
        H              1.00     1.00700     H ( 1.00)

     No symmetry found



   Cartesian axes

     site n.     atom                  positions (alat units)
         1           Pb  tau(   1) = (  -0.0012669  -0.0018648  -0.0002751  )
         2           Pb  tau(   2) = (  -0.0022682  -0.0015744   0.4912376  )
         3           Pb  tau(   3) = (  -0.0009350   0.4981449  -0.0014717  )
         4           Pb  tau(   4) = (  -0.0007557   0.4982724   0.4899281  )
         5           Pb  tau(   5) = (   0.4974864  -0.0009596  -0.0005196  )
         6           Pb  tau(   6) = (   0.4981175  -0.0027478   0.4904089  )
         7           Pb  tau(   7) = (   0.4974521   0.4989918  -0.0011011  )
         8           Pb  tau(   8) = (   0.4981809   0.4974469   0.4899581  )
         9           I   tau(   9) = (   0.2530930   0.0306266  -0.0058091  )
        10           I   tau(  10) = (   0.0305925   0.2555701  -0.0104995  )
        11           I   tau(  11) = (  -0.0000335   0.0055370   0.2437326  )
        12           I   tau(  12) = (   0.2532328   0.0240201   0.4830851  )
        13           I   tau(  13) = (   0.0339081   0.2546534   0.4853379  )
        14           I   tau(  14) = (  -0.0037095   0.0075198   0.7351715  )
        15           I   tau(  15) = (   0.2527913   0.5314598  -0.0077774  )
        16           I   tau(  16) = (   0.0278499   0.7554441  -0.0080596  )
        17           I   tau(  17) = (   0.0056040   0.4992487   0.2426748  )
        18           I   tau(  18) = (   0.2534215   0.5344034   0.4825587  )
        19           I   tau(  19) = (   0.0239396   0.7546641   0.4826438  )
        20           I   tau(  20) = (   0.0004385   0.5051723   0.7340123  )
        21           I   tau(  21) = (   0.7511157   0.0270468  -0.0071725  )
        22           I   tau(  22) = (   0.5288879   0.2547074  -0.0074797  )
        23           I   tau(  23) = (   0.5004906   0.0026225   0.2433467  )
        24           I   tau(  24) = (   0.7514246   0.0335882   0.4838927  )
        25           I   tau(  25) = (   0.5247799   0.2539488   0.4814510  )
        26           I   tau(  26) = (   0.4974113   0.0057770   0.7346542  )
        27           I   tau(  27) = (   0.7512148   0.5281019  -0.0064154  )
        28           I   tau(  28) = (   0.5284446   0.7545292  -0.0075422  )
        29           I   tau(  29) = (   0.5001860   0.5016582   0.2428679  )
        30           I   tau(  30) = (   0.7516150   0.5247659   0.4810141  )
        31           I   tau(  31) = (   0.5333387   0.7541540   0.4832228  )
        32           I   tau(  32) = (   0.4972454   0.5037249   0.7341910  )
        33           C   tau(  33) = (   0.2849862   0.2870647   0.2473037  )
        34           C   tau(  34) = (   0.2837038   0.2876753   0.7368680  )
        35           C   tau(  35) = (   0.2869626   0.7845015   0.2451156  )
        36           C   tau(  36) = (   0.2865569   0.7839858   0.7400048  )
        37           C   tau(  37) = (   0.7847890   0.2865225   0.2450614  )
        38           C   tau(  38) = (   0.7829588   0.2872722   0.7394527  )
        39           C   tau(  39) = (   0.7849769   0.7841503   0.2462498  )
        40           C   tau(  40) = (   0.7800197   0.7869902   0.7369222  )
        41           N   tau(  41) = (   0.2028284   0.2025230   0.2527470  )
        42           N   tau(  42) = (   0.2031454   0.2015581   0.7415141  )
        43           N   tau(  43) = (   0.2041953   0.7009548   0.2514158  )
        44           N   tau(  44) = (   0.2009840   0.7024485   0.7415100  )
        45           N   tau(  45) = (   0.7023243   0.2021706   0.2484189  )
        46           N   tau(  46) = (   0.7014195   0.2021130   0.7422769  )
        47           N   tau(  47) = (   0.6991137   0.7032148   0.2496992  )
        48           N   tau(  48) = (   0.6979518   0.7019809   0.7428184  )
        49           H   tau(  49) = (   0.1787031   0.1785065   0.1793089  )
        50           H   tau(  50) = (   0.1372500   0.2269234   0.2939750  )
        51           H   tau(  51) = (   0.2296142   0.1371108   0.2927790  )
        52           H   tau(  52) = (   0.3068127   0.2999415   0.1656326  )
        53           H   tau(  53) = (   0.3534271   0.2624989   0.2924018  )
        54           H   tau(  54) = (   0.2530636   0.3590654   0.2806964  )
        55           H   tau(  55) = (   0.1818215   0.1753718   0.6679697  )
        56           H   tau(  56) = (   0.1356136   0.2254082   0.7796765  )
        57           H   tau(  57) = (   0.2296228   0.1376488   0.7839516  )
        58           H   tau(  58) = (   0.2995776   0.3066103   0.6549896  )
        59           H   tau(  59) = (   0.3553644   0.2608473   0.7752132  )
        60           H   tau(  60) = (   0.2531092   0.3564772   0.7775786  )
        61           H   tau(  61) = (   0.1900909   0.6664211   0.1795364  )
        62           H   tau(  62) = (   0.1339626   0.7300863   0.2791050  )
        63           H   tau(  63) = (   0.2250714   0.6420092   0.3038125  )
        64           H   tau(  64) = (   0.2927598   0.8121383   0.1643546  )
        65           H   tau(  65) = (   0.3617366   0.7514580   0.2704718  )
        66           H   tau(  66) = (   0.2650071   0.8491894   0.2966663  )
        67           H   tau(  67) = (   0.1781556   0.6806056   0.6668711  )
        68           H   tau(  68) = (   0.1351880   0.7286653   0.7813424  )
        69           H   tau(  69) = (   0.2244276   0.6354166   0.7810040  )
        70           H   tau(  70) = (   0.3003414   0.8086002   0.6592458  )
        71           H   tau(  71) = (   0.3579693   0.7500112   0.7728799  )
        72           H   tau(  72) = (   0.2620115   0.8510393   0.7873509  )
        73           H   tau(  73) = (   0.6772800   0.1808877   0.1744632  )
        74           H   tau(  74) = (   0.6372039   0.2253799   0.2909445  )
        75           H   tau(  75) = (   0.7291862   0.1353436   0.2857712  )
        76           H   tau(  76) = (   0.7985783   0.3090074   0.1637222  )
        77           H   tau(  77) = (   0.8569731   0.2565389   0.2797687  )
        78           H   tau(  78) = (   0.7573135   0.3540889   0.2897799  )
        79           H   tau(  79) = (   0.6729538   0.1846722   0.6685294  )
        80           H   tau(  80) = (   0.6382701   0.2225443   0.7893070  )
        81           H   tau(  81) = (   0.7305353   0.1336793   0.7743645  )
        82           H   tau(  82) = (   0.8070382   0.3003243   0.6584589  )
        83           H   tau(  83) = (   0.8503138   0.2629865   0.7863092  )
        84           H   tau(  84) = (   0.7496014   0.3589417   0.7721805  )
        85           H   tau(  85) = (   0.6715325   0.6849739   0.1758129  )
        86           H   tau(  86) = (   0.6360336   0.7282635   0.2945523  )
        87           H   tau(  87) = (   0.7238638   0.6343930   0.2847865  )
        88           H   tau(  88) = (   0.8065135   0.7984864   0.1646871  )
        89           H   tau(  89) = (   0.8527153   0.7549953   0.2897210  )
        90           H   tau(  90) = (   0.7566930   0.8564651   0.2822997  )
        91           H   tau(  91) = (   0.6737094   0.6777631   0.6694307  )
        92           H   tau(  92) = (   0.6322209   0.7266319   0.7839006  )
        93           H   tau(  93) = (   0.7249730   0.6369011   0.7833092  )
        94           H   tau(  94) = (   0.7932756   0.8071986   0.6547699  )
        95           H   tau(  95) = (   0.8525281   0.7581654   0.7722946  )
        96           H   tau(  96) = (   0.7520407   0.8555932   0.7799961  )

     number of k points=    32
                       cart. coord. in units 2pi/alat
        k(    1) = (   0.1254038   0.1250255   0.1272048), wk =   0.0625000
        k(    2) = (   0.1254038   0.1250255   0.3816143), wk =   0.0625000
        k(    3) = (   0.1254038   0.3750764   0.1272048), wk =   0.0625000
        k(    4) = (   0.1254038   0.3750764   0.3816143), wk =   0.0625000
        k(    5) = (   0.3762113   0.1250255   0.1272048), wk =   0.0625000
        k(    6) = (   0.3762113   0.1250255   0.3816143), wk =   0.0625000
        k(    7) = (   0.3762113   0.3750764   0.1272048), wk =   0.0625000
        k(    8) = (   0.3762113   0.3750764   0.3816143), wk =   0.0625000
        k(    9) = (  -0.1254038  -0.1250255   0.1272048), wk =   0.0625000
        k(   10) = (  -0.1254038   0.1250255  -0.1272048), wk =   0.0625000
        k(   11) = (   0.1254038  -0.1250255  -0.1272048), wk =   0.0625000
        k(   12) = (  -0.1254038  -0.1250255   0.3816143), wk =   0.0625000
        k(   13) = (  -0.1254038   0.1250255  -0.3816143), wk =   0.0625000
        k(   14) = (   0.1254038  -0.1250255  -0.3816143), wk =   0.0625000
        k(   15) = (  -0.1254038  -0.3750764   0.1272048), wk =   0.0625000
        k(   16) = (  -0.1254038   0.3750764  -0.1272048), wk =   0.0625000
        k(   17) = (   0.1254038  -0.3750764  -0.1272048), wk =   0.0625000
        k(   18) = (  -0.1254038  -0.3750764   0.3816143), wk =   0.0625000
        k(   19) = (  -0.1254038   0.3750764  -0.3816143), wk =   0.0625000
        k(   20) = (   0.1254038  -0.3750764  -0.3816143), wk =   0.0625000
        k(   21) = (  -0.3762113  -0.1250255   0.1272048), wk =   0.0625000
        k(   22) = (  -0.3762113   0.1250255  -0.1272048), wk =   0.0625000
        k(   23) = (   0.3762113  -0.1250255  -0.1272048), wk =   0.0625000
        k(   24) = (  -0.3762113  -0.1250255   0.3816143), wk =   0.0625000
        k(   25) = (  -0.3762113   0.1250255  -0.3816143), wk =   0.0625000
        k(   26) = (   0.3762113  -0.1250255  -0.3816143), wk =   0.0625000
        k(   27) = (  -0.3762113  -0.3750764   0.1272048), wk =   0.0625000
        k(   28) = (  -0.3762113   0.3750764  -0.1272048), wk =   0.0625000
        k(   29) = (   0.3762113  -0.3750764  -0.1272048), wk =   0.0625000
        k(   30) = (  -0.3762113  -0.3750764   0.3816143), wk =   0.0625000
        k(   31) = (  -0.3762113   0.3750764  -0.3816143), wk =   0.0625000
        k(   32) = (   0.3762113  -0.3750764  -0.3816143), wk =   0.0625000

     Dense  grid:  2450159 G-vectors     FFT dimensions: ( 180, 180, 180)

     Estimated max dynamical RAM per process >       2.14 GB

     Estimated total dynamical RAM >     102.64 GB

     Initial potential from superposition of free atoms

     starting charge  399.97850, renormalised to  400.00000
     Starting wfcs are  280 randomized atomic wfcs
     Checking if some PAW data can be deallocated... 

     total cpu time spent up to now is      536.8 secs

     Self-consistent Calculation

     iteration #  1     ecut=   120.00 Ry     beta= 0.70
     Davidson diagonalization with overlap
     ethr =  1.00E-02,  avg # of iterations =  2.0

     total cpu time spent up to now is     1619.5 secs

     total energy              =  -16489.32278924 Ry
     Harris-Foulkes estimate   =  -16492.61642285 Ry
     estimated scf accuracy    <       5.63364695 Ry

     iteration #  2     ecut=   120.00 Ry     beta= 0.70
     Davidson diagonalization with overlap
     ethr =  1.41E-03,  avg # of iterations =  3.0

     total cpu time spent up to now is     3033.6 secs

     total energy              =  -16490.54296903 Ry
     Harris-Foulkes estimate   =  -16491.67284645 Ry
     estimated scf accuracy    <       2.00388482 Ry

     iteration #  3     ecut=   120.00 Ry     beta= 0.70
     Davidson diagonalization with overlap
     ethr =  5.01E-04,  avg # of iterations =  3.0

     total cpu time spent up to now is     4180.8 secs

     total energy              =  -16491.01285273 Ry
     Harris-Foulkes estimate   =  -16491.05729876 Ry
     estimated scf accuracy    <       0.10153166 Ry

     iteration #  4     ecut=   120.00 Ry     beta= 0.70
     Davidson diagonalization with overlap
     ethr =  2.54E-05,  avg # of iterations =  3.0

     total cpu time spent up to now is     5696.6 secs

     total energy              =  -16491.03887237 Ry
     Harris-Foulkes estimate   =  -16491.05020361 Ry
     estimated scf accuracy    <       0.02109868 Ry

     iteration #  5     ecut=   120.00 Ry     beta= 0.70
     Davidson diagonalization with overlap
     ethr =  5.27E-06,  avg # of iterations =  2.0

     total cpu time spent up to now is     6972.3 secs

     total energy              =  -16491.04311299 Ry
     Harris-Foulkes estimate   =  -16491.04329255 Ry
     estimated scf accuracy    <       0.00047675 Ry

     iteration #  6     ecut=   120.00 Ry     beta= 0.70
     Davidson diagonalization with overlap
     ethr =  1.19E-07,  avg # of iterations =  4.0

     total cpu time spent up to now is     8687.9 secs

     total energy              =  -16491.04327049 Ry
     Harris-Foulkes estimate   =  -16491.04347212 Ry
     estimated scf accuracy    <       0.00042468 Ry

     iteration #  7     ecut=   120.00 Ry     beta= 0.70
     Davidson diagonalization with overlap
     ethr =  1.06E-07,  avg # of iterations =  2.6

     total cpu time spent up to now is     9834.1 secs

     total energy              =  -16491.04336377 Ry
     Harris-Foulkes estimate   =  -16491.04338610 Ry
     estimated scf accuracy    <       0.00005332 Ry

     iteration #  8     ecut=   120.00 Ry     beta= 0.70
     Davidson diagonalization with overlap
     ethr =  1.33E-08,  avg # of iterations =  3.0

     total cpu time spent up to now is    11171.4 secs

     total energy              =  -16491.04337761 Ry
     Harris-Foulkes estimate   =  -16491.04338057 Ry
     estimated scf accuracy    <       0.00000776 Ry

     iteration #  9     ecut=   120.00 Ry     beta= 0.70
     Davidson diagonalization with overlap
     ethr =  1.94E-09,  avg # of iterations =  3.0

     total cpu time spent up to now is    12475.6 secs

     total energy              =  -16491.04337926 Ry
     Harris-Foulkes estimate   =  -16491.04337950 Ry
     estimated scf accuracy    <       0.00000048 Ry

     iteration # 10     ecut=   120.00 Ry     beta= 0.70
     Davidson diagonalization with overlap
     ethr =  1.19E-10,  avg # of iterations =  3.3

     total cpu time spent up to now is    13847.5 secs

     total energy              =  -16491.04337940 Ry
     Harris-Foulkes estimate   =  -16491.04337947 Ry
     estimated scf accuracy    <       0.00000016 Ry

     iteration # 11     ecut=   120.00 Ry     beta= 0.70
     Davidson diagonalization with overlap
     ethr =  4.03E-11,  avg # of iterations =  3.2

     total cpu time spent up to now is    15037.4 secs

     End of self-consistent calculation

          k = 0.1254 0.1250 0.1272 (306251 PWs)   bands (ev):

   -17.7764 -17.7684 -17.7614 -17.7578 -17.7494 -17.7468 -17.7468 -17.7315
   -14.3477 -14.3373 -14.3355 -14.3341 -14.3332 -14.3251 -14.3233 -14.3230
   -14.3212 -14.3177 -14.3131 -14.3123 -14.3105 -14.3050 -14.3028 -14.3017
   -14.3004 -14.2993 -14.2968 -14.2957 -14.2896 -14.2876 -14.2874 -14.2865
   -14.2861 -14.2838 -14.2792 -14.2768 -14.2758 -14.2755 -14.2749 -14.2723
   -14.2713 -14.2702 -14.2678 -14.2668 -14.2662 -14.2633 -14.2593 -14.2586
   -10.8010 -10.7944 -10.7893 -10.7875 -10.7839 -10.7789 -10.7699 -10.7634
    -9.8386  -9.6618  -9.6426  -9.6359  -9.4688  -9.4635  -9.4613  -9.3939
    -9.3484  -9.3417  -9.3394  -9.3353  -9.3332  -9.3279  -9.3034  -9.2957
    -9.2897  -9.2791  -9.2753  -9.1266  -9.1174  -9.1102  -9.0990  -9.0908
    -7.2883  -7.2773  -7.2754  -7.2729  -7.2564  -7.2435  -7.2370  -7.2363
    -7.1209  -7.1060  -7.1020  -7.0939  -7.0886  -7.0852  -7.0748  -7.0717
    -6.0474  -5.6063  -5.5915  -5.4822  -5.2022  -5.1636  -5.1599  -5.1573
    -5.1509  -5.1431  -5.1353  -5.1257  -5.1124  -5.0495  -5.0364  -4.6250
    -3.0396  -3.0366  -3.0261  -3.0211  -3.0195  -3.0144  -3.0115  -3.0034
    -3.0010  -2.9855  -2.9727  -2.9675  -2.9624  -2.9492  -2.9419  -2.9345
    -1.1278  -1.0117  -1.0073  -0.9852  -0.9355  -0.9339  -0.9125  -0.9018
    -0.8558  -0.8077  -0.8005  -0.7785   0.0924   0.0965   0.1779   0.1911
     0.2221   0.2574   0.3196   0.4393   0.4468   0.5249   0.5338   0.5477
     0.5791   0.6061   0.6159   0.6199   0.6230   0.7550   0.7817   0.7951
     0.8056   0.8081   0.8308   0.8330   0.8473   0.8539   0.8975   0.9354
     0.9433   0.9542   0.9590   1.0139   1.0250   1.0606   1.0805   1.0874
     1.0911   1.1110   1.1131   1.1220   1.1330   1.1436   1.1610   1.1708
     1.1765   1.1917   1.2734   1.4230   1.4644   1.4790   1.4941   1.5076
     1.5198   1.5431   1.5794   1.6024   1.6078   1.8542   1.8722   1.9874

          k = 0.1254 0.1250 0.3816 (306247 PWs)   bands (ev):

   -17.7764 -17.7684 -17.7614 -17.7578 -17.7494 -17.7468 -17.7468 -17.7315
   -14.3440 -14.3388 -14.3358 -14.3343 -14.3313 -14.3264 -14.3233 -14.3219
   -14.3209 -14.3158 -14.3151 -14.3128 -14.3106 -14.3081 -14.3029 -14.3019
   -14.3004 -14.2993 -14.2968 -14.2957 -14.2896 -14.2875 -14.2874 -14.2866
   -14.2861 -14.2838 -14.2792 -14.2768 -14.2758 -14.2755 -14.2750 -14.2723
   -14.2713 -14.2702 -14.2677 -14.2667 -14.2662 -14.2633 -14.2592 -14.2587
   -10.8004 -10.7928 -10.7895 -10.7875 -10.7855 -10.7791 -10.7696 -10.7639
    -9.8006  -9.7306  -9.6055  -9.5992  -9.5407  -9.5345  -9.4437  -9.4186
    -9.3480  -9.3456  -9.3406  -9.3387  -9.3189  -9.3080  -9.2936  -9.2921
    -9.2538  -9.2047  -9.1994  -9.1684  -9.1384  -9.1329  -9.1135  -9.1118
    -7.2780  -7.2662  -7.2653  -7.2638  -7.2633  -7.2523  -7.2477  -7.2463
    -7.1170  -7.1061  -7.1022  -7.0916  -7.0901  -7.0839  -7.0776  -7.0758
    -5.8989  -5.6673  -5.4665  -5.4516  -5.2448  -5.2313  -5.1713  -5.1599
    -5.1572  -5.1528  -5.1475  -5.1423  -5.1264  -5.1141  -5.0278  -4.8144
    -3.0358  -3.0326  -3.0234  -3.0210  -3.0181  -3.0156  -3.0120  -3.0091
    -2.9983  -2.9881  -2.9711  -2.9661  -2.9642  -2.9494  -2.9422  -2.9345
    -0.9934  -0.9137  -0.9060  -0.9023  -0.8815  -0.8505  -0.8457  -0.8234
    -0.6076  -0.5435  -0.5375  -0.4414   0.0043   0.1044   0.1088   0.1279
     0.1301   0.2104   0.2603   0.2638   0.3040   0.3258   0.3543   0.3559
     0.3869   0.4148   0.5888   0.5925   0.6052   0.6106   0.7972   0.8084
     0.8400   0.8529   0.8640   0.8656   0.8735   0.8839   0.9122   0.9162
     0.9208   0.9275   0.9641   0.9676   1.0257   1.0557   1.0875   1.0947
     1.1019   1.1183   1.1267   1.1402   1.1443   1.1605   1.1929   1.2048
     1.2272   1.2361   1.2512   1.2540   1.3127   1.3999   1.4035   1.4353
     1.4902   1.5214   1.5755   1.5843   1.5984   1.6114   1.6207   1.7000

          k = 0.1254 0.3751 0.1272 (306263 PWs)   bands (ev):

   -17.7764 -17.7684 -17.7614 -17.7578 -17.7494 -17.7468 -17.7468 -17.7315
   -14.3474 -14.3364 -14.3348 -14.3341 -14.3331 -14.3248 -14.3242 -14.3232
   -14.3221 -14.3176 -14.3123 -14.3119 -14.3094 -14.3052 -14.3040 -14.3034
   -14.3003 -14.2992 -14.2968 -14.2957 -14.2895 -14.2876 -14.2874 -14.2865
   -14.2861 -14.2838 -14.2791 -14.2768 -14.2758 -14.2755 -14.2749 -14.2723
   -14.2713 -14.2702 -14.2678 -14.2668 -14.2662 -14.2633 -14.2593 -14.2586
   -10.8007 -10.7917 -10.7908 -10.7869 -10.7840 -10.7771 -10.7733 -10.7641
    -9.7932  -9.7203  -9.6231  -9.6029  -9.5486  -9.5324  -9.4394  -9.4239
    -9.3481  -9.3388  -9.3363  -9.3290  -9.3239  -9.3193  -9.2874  -9.2798
    -9.2569  -9.2155  -9.2079  -9.1713  -9.1435  -9.1313  -9.1090  -9.0974
    -7.2882  -7.2766  -7.2759  -7.2731  -7.2552  -7.2428  -7.2391  -7.2364
    -7.1203  -7.1051  -7.1019  -7.0947  -7.0890  -7.0852  -7.0746  -7.0720
    -5.9297  -5.7451  -5.4839  -5.3752  -5.3260  -5.1958  -5.1621  -5.1564
    -5.1512  -5.1503  -5.1460  -5.1403  -5.1332  -5.1154  -4.9240  -4.7607
    -3.0373  -3.0342  -3.0265  -3.0225  -3.0183  -3.0140  -3.0124  -3.0078
    -2.9941  -2.9812  -2.9778  -2.9648  -2.9592  -2.9498  -2.9458  -2.9403
    -1.0941  -1.0440  -0.9918  -0.9843  -0.9667  -0.9340  -0.8494  -0.8400
    -0.5627  -0.5249  -0.4316  -0.4038   0.0353   0.0837   0.1289   0.1574
     0.1772   0.1969   0.2207   0.2328   0.2880   0.3048   0.3456   0.3918
     0.4065   0.4593   0.5719   0.5959   0.6117   0.6861   0.6954   0.7768
     0.8018   0.8260   0.8355   0.8522   0.8604   0.8686   0.8808   0.8995
     0.9136   0.9323   0.9422   0.9919   1.0225   1.0382   1.1225   1.1364
     1.1391   1.1495   1.1541   1.1673   1.1755   1.1899   1.2067   1.2371
     1.2552   1.2682   1.2887   1.3302   1.3536   1.3918   1.4078   1.4534
     1.5122   1.5185   1.5436   1.5754   1.5844   1.6620   1.8788   1.9008

          k = 0.1254 0.3751 0.3816 (306242 PWs)   bands (ev):

   -17.7764 -17.7684 -17.7614 -17.7578 -17.7494 -17.7468 -17.7468 -17.7315
   -14.3438 -14.3384 -14.3346 -14.3333 -14.3321 -14.3268 -14.3241 -14.3220
   -14.3213 -14.3155 -14.3143 -14.3121 -14.3097 -14.3085 -14.3041 -14.3034
   -14.3003 -14.2992 -14.2968 -14.2957 -14.2895 -14.2875 -14.2874 -14.2866
   -14.2861 -14.2838 -14.2791 -14.2768 -14.2758 -14.2755 -14.2750 -14.2723
   -14.2713 -14.2702 -14.2677 -14.2667 -14.2662 -14.2633 -14.2592 -14.2587
   -10.8001 -10.7905 -10.7895 -10.7884 -10.7853 -10.7774 -10.7727 -10.7648
    -9.7574  -9.6892  -9.6827  -9.6189  -9.5677  -9.5075  -9.5050  -9.4668
    -9.3488  -9.3434  -9.3266  -9.3225  -9.2876  -9.2670  -9.2572  -9.2478
    -9.2240  -9.2142  -9.1906  -9.1879  -9.1565  -9.1433  -9.1381  -9.1301
    -7.2780  -7.2660  -7.2652  -7.2639  -7.2632  -7.2516  -7.2489  -7.2465
    -7.1167  -7.1058  -7.1016  -7.0923  -7.0899  -7.0839  -7.0775  -7.0763
    -5.7849  -5.6031  -5.5577  -5.3774  -5.3490  -5.2241  -5.1808  -5.1652
    -5.1521  -5.1471  -5.1411  -5.1352  -5.1249  -5.1083  -5.0843  -4.9426
    -3.0356  -3.0323  -3.0232  -3.0220  -3.0180  -3.0157  -3.0129  -3.0099
    -2.9916  -2.9826  -2.9762  -2.9653  -2.9591  -2.9489  -2.9468  -2.9402
    -0.9575  -0.9539  -0.8973  -0.8883  -0.6863  -0.6081  -0.5898  -0.4906
    -0.4838  -0.4640  -0.4414  -0.4061  -0.0233   0.0425   0.0450   0.0701
     0.1098   0.1308   0.1640   0.1875   0.2430   0.2446   0.2664   0.3316
     0.3427   0.4276   0.4352   0.4439   0.5857   0.6089   0.6473   0.6894
     0.6977   0.7202   0.7709   0.7838   0.8096   0.8175   0.8738   0.8858
     0.9080   0.9669   1.0007   1.0096   1.0150   1.0865   1.1001   1.1094
     1.1180   1.1384   1.1417   1.1969   1.2301   1.2420   1.2455   1.2576
     1.2630   1.2779   1.2824   1.2850   1.2928   1.3552   1.3649   1.3989
     1.4094   1.4108   1.4180   1.4464   1.5798   1.5889   1.6137   1.6500

          k = 0.3762 0.1250 0.1272 (306313 PWs)   bands (ev):

   -17.7764 -17.7684 -17.7614 -17.7578 -17.7494 -17.7468 -17.7468 -17.7315
   -14.3475 -14.3371 -14.3355 -14.3335 -14.3325 -14.3255 -14.3227 -14.3224
   -14.3203 -14.3185 -14.3136 -14.3127 -14.3112 -14.3058 -14.3034 -14.3020
   -14.3003 -14.2992 -14.2968 -14.2957 -14.2895 -14.2876 -14.2874 -14.2865
   -14.2861 -14.2838 -14.2791 -14.2768 -14.2758 -14.2755 -14.2749 -14.2723
   -14.2713 -14.2702 -14.2678 -14.2668 -14.2662 -14.2633 -14.2593 -14.2586
   -10.8006 -10.7929 -10.7895 -10.7869 -10.7842 -10.7767 -10.7736 -10.7642
    -9.7934  -9.7162  -9.6238  -9.6084  -9.5465  -9.5353  -9.4412  -9.4225
    -9.3507  -9.3434  -9.3351  -9.3273  -9.3209  -9.3034  -9.2943  -9.2768
    -9.2577  -9.2163  -9.2143  -9.1679  -9.1423  -9.1349  -9.1173  -9.0890
    -7.2882  -7.2772  -7.2750  -7.2735  -7.2550  -7.2438  -7.2379  -7.2369
    -7.1203  -7.1055  -7.1020  -7.0939  -7.0889  -7.0856  -7.0746  -7.0720
    -5.9266  -5.7350  -5.4955  -5.3724  -5.3302  -5.1871  -5.1601  -5.1571
    -5.1560  -5.1505  -5.1435  -5.1371  -5.1349  -5.1162  -4.9341  -4.7651
    -3.0374  -3.0362  -3.0248  -3.0219  -3.0189  -3.0146  -3.0120  -3.0075
    -2.9941  -2.9790  -2.9754  -2.9657  -2.9638  -2.9487  -2.9449  -2.9413
    -1.0951  -1.0427  -0.9889  -0.9834  -0.9523  -0.9333  -0.8496  -0.8220
    -0.5645  -0.5311  -0.4265  -0.4139   0.0373   0.0909   0.1341   0.1698
     0.1877   0.1952   0.2210   0.2347   0.2833   0.2961   0.3447   0.3867
     0.3954   0.4574   0.5731   0.6013   0.6177   0.6920   0.6969   0.7796
     0.8071   0.8129   0.8396   0.8470   0.8569   0.8664   0.8795   0.8982
     0.9212   0.9325   0.9395   0.9959   1.0063   1.0483   1.1227   1.1304
     1.1390   1.1432   1.1575   1.1594   1.1722   1.1856   1.2067   1.2493
     1.2570   1.2620   1.2899   1.3376   1.3641   1.3982   1.4132   1.4494
     1.4958   1.5189   1.5394   1.5531   1.5690   1.6618   1.8648   1.8944

          k = 0.3762 0.1250 0.3816 (306256 PWs)   bands (ev):

   -17.7764 -17.7684 -17.7614 -17.7578 -17.7494 -17.7468 -17.7468 -17.7315
   -14.3439 -14.3387 -14.3353 -14.3337 -14.3309 -14.3261 -14.3224 -14.3220
   -14.3202 -14.3161 -14.3156 -14.3134 -14.3112 -14.3087 -14.3035 -14.3024
   -14.3003 -14.2992 -14.2968 -14.2957 -14.2895 -14.2875 -14.2874 -14.2866
   -14.2861 -14.2838 -14.2791 -14.2768 -14.2758 -14.2755 -14.2750 -14.2723
   -14.2713 -14.2702 -14.2677 -14.2667 -14.2662 -14.2633 -14.2592 -14.2587
   -10.8000 -10.7914 -10.7887 -10.7882 -10.7856 -10.7769 -10.7730 -10.7648
    -9.7577  -9.6898  -9.6786  -9.6158  -9.5732  -9.5112  -9.5074  -9.4684
    -9.3534  -9.3472  -9.3136  -9.3062  -9.2854  -9.2665  -9.2589  -9.2544
    -9.2309  -9.2205  -9.1879  -9.1848  -9.1630  -9.1439  -9.1411  -9.1212
    -7.2780  -7.2661  -7.2651  -7.2639  -7.2632  -7.2523  -7.2481  -7.2467
    -7.1167  -7.1060  -7.1019  -7.0915  -7.0893  -7.0848  -7.0775  -7.0763
    -5.7819  -5.5935  -5.5545  -5.3692  -5.3598  -5.2265  -5.1843  -5.1682
    -5.1502  -5.1452  -5.1399  -5.1374  -5.1276  -5.1093  -5.0897  -4.9466
    -3.0357  -3.0324  -3.0231  -3.0210  -3.0186  -3.0158  -3.0129  -3.0101
    -2.9917  -2.9811  -2.9725  -2.9663  -2.9647  -2.9478  -2.9456  -2.9412
    -0.9611  -0.9370  -0.8964  -0.8697  -0.6747  -0.6048  -0.5883  -0.4894
    -0.4848  -0.4789  -0.4469  -0.4198  -0.0124   0.0468   0.0567   0.0733
     0.1171   0.1320   0.1618   0.1671   0.2410   0.2457   0.2673   0.3312
     0.3489   0.4335   0.4433   0.4480   0.5871   0.6091   0.6474   0.6815
     0.7006   0.7053   0.7693   0.7832   0.8040   0.8192   0.8764   0.8895
     0.9124   0.9623   1.0003   1.0053   1.0157   1.0833   1.0980   1.1071
     1.1194   1.1406   1.1507   1.1906   1.2265   1.2403   1.2452   1.2542
     1.2604   1.2712   1.2866   1.2911   1.2965   1.3588   1.3765   1.3915
     1.4125   1.4167   1.4185   1.4571   1.5565   1.5687   1.5934   1.6303

          k = 0.3762 0.3751 0.1272 (306357 PWs)   bands (ev):

   -17.7764 -17.7684 -17.7614 -17.7578 -17.7494 -17.7468 -17.7468 -17.7315
   -14.3473 -14.3362 -14.3347 -14.3334 -14.3323 -14.3252 -14.3237 -14.3227
   -14.3210 -14.3183 -14.3130 -14.3121 -14.3098 -14.3058 -14.3047 -14.3038
   -14.3003 -14.2992 -14.2968 -14.2957 -14.2895 -14.2876 -14.2874 -14.2865
   -14.2861 -14.2838 -14.2791 -14.2768 -14.2758 -14.2755 -14.2749 -14.2723
   -14.2713 -14.2702 -14.2678 -14.2668 -14.2662 -14.2633 -14.2593 -14.2586
   -10.8004 -10.7944 -10.7882 -10.7876 -10.7820 -10.7790 -10.7729 -10.7643
    -9.7485  -9.6878  -9.6811  -9.6018  -9.5906  -9.5179  -9.5092  -9.4790
    -9.3426  -9.3331  -9.3199  -9.3170  -9.2801  -9.2705  -9.2541  -9.2457
    -9.2372  -9.2282  -9.2045  -9.1772  -9.1650  -9.1459  -9.1249  -9.1170
    -7.2881  -7.2767  -7.2753  -7.2738  -7.2550  -7.2437  -7.2388  -7.2367
    -7.1199  -7.1043  -7.1017  -7.0950  -7.0894  -7.0854  -7.0749  -7.0719
    -5.8147  -5.6309  -5.6209  -5.4650  -5.2825  -5.1740  -5.1632  -5.1563
    -5.1523  -5.1425  -5.1403  -5.1329  -5.1177  -5.0613  -5.0538  -4.8988
    -3.0363  -3.0334  -3.0247  -3.0212  -3.0189  -3.0150  -3.0136  -3.0106
    -2.9883  -2.9764  -2.9723  -2.9665  -2.9587  -2.9553  -2.9486  -2.9457
    -1.0589  -1.0248  -1.0196  -0.9606  -0.6833  -0.6788  -0.5821  -0.5341
    -0.5309  -0.5004  -0.4346  -0.4181  -0.0017   0.0402   0.1157   0.1701
     0.1735   0.1798   0.1855   0.1884   0.2064   0.2771   0.3001   0.3207
     0.3874   0.4339   0.4442   0.5361   0.5443   0.5688   0.5743   0.6543
     0.6629   0.6700   0.7565   0.7797   0.8139   0.8330   0.8617   0.8771
     0.9019   0.9416   0.9514   0.9886   1.0386   1.1189   1.1256   1.1353
     1.1432   1.1514   1.1704   1.1908   1.2003   1.2110   1.2661   1.2747
     1.2824   1.3117   1.3212   1.3296   1.3348   1.3962   1.4048   1.4297
     1.4647   1.4729   1.4760   1.4940   1.5237   1.6581   1.6824   1.7120

          k = 0.3762 0.3751 0.3816 (306301 PWs)   bands (ev):

   -17.7764 -17.7684 -17.7614 -17.7578 -17.7494 -17.7468 -17.7468 -17.7315
   -14.3436 -14.3383 -14.3340 -14.3327 -14.3318 -14.3266 -14.3232 -14.3218
   -14.3210 -14.3158 -14.3148 -14.3126 -14.3101 -14.3090 -14.3047 -14.3040
   -14.3003 -14.2992 -14.2968 -14.2957 -14.2895 -14.2875 -14.2874 -14.2866
   -14.2861 -14.2838 -14.2791 -14.2768 -14.2758 -14.2755 -14.2750 -14.2723
   -14.2713 -14.2702 -14.2677 -14.2667 -14.2662 -14.2633 -14.2592 -14.2587
   -10.7999 -10.7929 -10.7899 -10.7866 -10.7830 -10.7791 -10.7723 -10.7650
    -9.7157  -9.6525  -9.6502  -9.6439  -9.5872  -9.5798  -9.5729  -9.5301
    -9.3008  -9.2968  -9.2862  -9.2786  -9.2725  -9.2564  -9.2451  -9.2423
    -9.2304  -9.2077  -9.2012  -9.1859  -9.1743  -9.1672  -9.1542  -9.1480
    -7.2781  -7.2661  -7.2652  -7.2639  -7.2631  -7.2523  -7.2482  -7.2470
    -7.1163  -7.1056  -7.1011  -7.0923  -7.0888  -7.0851  -7.0778  -7.0764
    -5.6743  -5.4926  -5.4821  -5.4541  -5.3414  -5.2748  -5.2642  -5.1971
    -5.1546  -5.1487  -5.1441  -5.1367  -5.1281  -5.1241  -5.1097  -5.0604
    -3.0356  -3.0321  -3.0231  -3.0218  -3.0182  -3.0161  -3.0135  -3.0106
    -2.9866  -2.9774  -2.9709  -2.9643  -2.9603  -2.9536  -2.9494  -2.9460
    -0.7149  -0.6874  -0.6779  -0.5926  -0.5877  -0.5496  -0.5383  -0.5285
    -0.5151  -0.4913  -0.4803  -0.3497  -0.0327   0.0292   0.0353   0.0443
     0.0806   0.0833   0.1017   0.1791   0.1801   0.1820   0.1905   0.1984
     0.4693   0.4777   0.4854   0.5021   0.5095   0.5158   0.5209   0.6537
     0.6573   0.6622   0.6767   0.7273   0.7518   0.7592   0.7667   0.7773
     0.8624   0.8753   0.9495   0.9531   0.9580   0.9652   1.0092   1.1453
     1.1960   1.2075   1.2142   1.2235   1.2317   1.2583   1.2603   1.2660
     1.2741   1.2853   1.2890   1.3056   1.3142   1.3298   1.3388   1.3636
     1.3680   1.4127   1.4490   1.4603   1.4681   1.4712   1.4836   1.4922

          k =-0.1254-0.1250 0.1272 (306251 PWs)   bands (ev):

   -17.7764 -17.7684 -17.7614 -17.7578 -17.7494 -17.7468 -17.7468 -17.7315
   -14.3477 -14.3373 -14.3355 -14.3341 -14.3332 -14.3251 -14.3233 -14.3230
   -14.3212 -14.3177 -14.3131 -14.3123 -14.3105 -14.3050 -14.3028 -14.3017
   -14.3004 -14.2993 -14.2968 -14.2957 -14.2896 -14.2876 -14.2874 -14.2865
   -14.2861 -14.2838 -14.2792 -14.2768 -14.2758 -14.2755 -14.2749 -14.2723
   -14.2713 -14.2702 -14.2678 -14.2668 -14.2662 -14.2633 -14.2593 -14.2586
   -10.8009 -10.7944 -10.7893 -10.7875 -10.7840 -10.7789 -10.7700 -10.7634
    -9.8381  -9.6628  -9.6430  -9.6364  -9.4666  -9.4644  -9.4596  -9.3910
    -9.3509  -9.3427  -9.3413  -9.3366  -9.3345  -9.3297  -9.3026  -9.2951
    -9.2890  -9.2777  -9.2728  -9.1267  -9.1176  -9.1102  -9.0993  -9.0910
    -7.2883  -7.2773  -7.2754  -7.2730  -7.2564  -7.2435  -7.2369  -7.2363
    -7.1209  -7.1059  -7.1020  -7.0940  -7.0887  -7.0852  -7.0748  -7.0716
    -6.0474  -5.6063  -5.5916  -5.4821  -5.2001  -5.1635  -5.1596  -5.1573
    -5.1507  -5.1434  -5.1367  -5.1258  -5.1127  -5.0501  -5.0367  -4.6248
    -3.0394  -3.0364  -3.0258  -3.0207  -3.0194  -3.0143  -3.0118  -3.0036
    -3.0003  -2.9862  -2.9726  -2.9677  -2.9625  -2.9493  -2.9418  -2.9346
    -1.1182  -1.0115  -1.0042  -0.9933  -0.9387  -0.9345  -0.9133  -0.9047
    -0.8562  -0.8080  -0.8001  -0.7786   0.0930   0.0963   0.1771   0.1903
     0.2230   0.2584   0.3197   0.4363   0.4426   0.5252   0.5417   0.5558
     0.5777   0.6026   0.6128   0.6347   0.6367   0.7484   0.7804   0.7847
     0.7983   0.8077   0.8283   0.8314   0.8416   0.8468   0.8988   0.9311
     0.9372   0.9577   0.9632   1.0133   1.0259   1.0591   1.0861   1.0971
     1.1005   1.1080   1.1149   1.1241   1.1352   1.1437   1.1588   1.1708
     1.1742   1.1985   1.2673   1.4272   1.4662   1.4836   1.4946   1.5034
     1.5163   1.5314   1.5878   1.6021   1.6113   1.8515   1.8720   1.9760

          k =-0.1254 0.1250-0.1272 (306251 PWs)   bands (ev):

   -17.7764 -17.7684 -17.7614 -17.7578 -17.7494 -17.7468 -17.7468 -17.7315
   -14.3477 -14.3373 -14.3355 -14.3341 -14.3332 -14.3251 -14.3233 -14.3230
   -14.3212 -14.3177 -14.3131 -14.3123 -14.3105 -14.3050 -14.3029 -14.3017
   -14.3003 -14.2993 -14.2968 -14.2957 -14.2896 -14.2876 -14.2874 -14.2865
   -14.2861 -14.2838 -14.2792 -14.2768 -14.2758 -14.2755 -14.2749 -14.2723
   -14.2713 -14.2702 -14.2678 -14.2668 -14.2662 -14.2633 -14.2593 -14.2586
   -10.8009 -10.7957 -10.7889 -10.7878 -10.7833 -10.7798 -10.7687 -10.7631
    -9.8404  -9.6612  -9.6403  -9.6335  -9.4708  -9.4675  -9.4626  -9.3746
    -9.3578  -9.3523  -9.3418  -9.3356  -9.3341  -9.3282  -9.3203  -9.3000
    -9.2740  -9.2724  -9.2619  -9.1371  -9.1126  -9.1113  -9.1006  -9.0885
    -7.2883  -7.2773  -7.2754  -7.2729  -7.2557  -7.2434  -7.2375  -7.2363
    -7.1209  -7.1059  -7.1020  -7.0940  -7.0886  -7.0853  -7.0746  -7.0719
    -6.0462  -5.6080  -5.5936  -5.4796  -5.1975  -5.1678  -5.1659  -5.1604
    -5.1566  -5.1396  -5.1329  -5.1223  -5.1106  -5.0482  -5.0363  -4.6225
    -3.0404  -3.0363  -3.0262  -3.0206  -3.0195  -3.0144  -3.0116  -3.0039
    -2.9998  -2.9842  -2.9735  -2.9681  -2.9635  -2.9501  -2.9412  -2.9338
    -1.1240  -1.0990  -1.0094  -0.9996  -0.9527  -0.9198  -0.9135  -0.9087
    -0.8169  -0.7906  -0.7805  -0.6960   0.0890   0.1022   0.1862   0.1973
     0.2267   0.2540   0.3086   0.4048   0.4080   0.4469   0.5274   0.5328
     0.5968   0.6076   0.6323   0.6486   0.6676   0.6776   0.7315   0.7849
     0.7935   0.8295   0.8662   0.8675   0.8820   0.8967   0.9294   0.9368
     0.9414   0.9469   0.9675   1.0158   1.0231   1.0417   1.0607   1.0697
     1.0772   1.0804   1.1083   1.1192   1.1338   1.1502   1.1632   1.1672
     1.1774   1.2208   1.2774   1.4348   1.4435   1.4730   1.4902   1.5011
     1.5118   1.5214   1.5279   1.5747   1.7563   1.8429   1.8611   2.0753

          k = 0.1254-0.1250-0.1272 (306251 PWs)   bands (ev):

   -17.7764 -17.7684 -17.7614 -17.7578 -17.7494 -17.7468 -17.7468 -17.7315
   -14.3477 -14.3373 -14.3355 -14.3341 -14.3332 -14.3251 -14.3233 -14.3230
   -14.3212 -14.3177 -14.3131 -14.3123 -14.3105 -14.3050 -14.3029 -14.3017
   -14.3003 -14.2993 -14.2968 -14.2957 -14.2896 -14.2876 -14.2874 -14.2865
   -14.2861 -14.2838 -14.2792 -14.2768 -14.2758 -14.2755 -14.2749 -14.2723
   -14.2713 -14.2702 -14.2678 -14.2668 -14.2662 -14.2633 -14.2593 -14.2586
   -10.8009 -10.7957 -10.7889 -10.7878 -10.7833 -10.7798 -10.7687 -10.7630
    -9.8404  -9.6612  -9.6396  -9.6342  -9.4711  -9.4673  -9.4629  -9.3746
    -9.3563  -9.3521  -9.3424  -9.3362  -9.3329  -9.3302  -9.3194  -9.3007
    -9.2749  -9.2715  -9.2615  -9.1369  -9.1128  -9.1111  -9.1007  -9.0887
    -7.2883  -7.2772  -7.2754  -7.2730  -7.2558  -7.2433  -7.2375  -7.2365
    -7.1209  -7.1060  -7.1020  -7.0939  -7.0887  -7.0852  -7.0746  -7.0719
    -6.0462  -5.6081  -5.5934  -5.4796  -5.1979  -5.1677  -5.1660  -5.1604
    -5.1566  -5.1396  -5.1327  -5.1222  -5.1106  -5.0490  -5.0355  -4.6223
    -3.0406  -3.0363  -3.0259  -3.0210  -3.0193  -3.0145  -3.0115  -3.0040
    -2.9995  -2.9842  -2.9733  -2.9687  -2.9631  -2.9501  -2.9412  -2.9338
    -1.1244  -1.1010  -1.0096  -1.0053  -0.9525  -0.9199  -0.9135  -0.9023
    -0.8139  -0.7906  -0.7800  -0.6956   0.0895   0.1021   0.1857   0.1984
     0.2262   0.2540   0.3081   0.3989   0.4134   0.4448   0.5100   0.5444
     0.5988   0.6195   0.6240   0.6438   0.6665   0.6808   0.7310   0.7800
     0.8085   0.8247   0.8664   0.8697   0.8841   0.8963   0.9289   0.9329
     0.9397   0.9517   0.9676   1.0102   1.0275   1.0447   1.0598   1.0652
     1.0685   1.0829   1.1109   1.1174   1.1278   1.1578   1.1608   1.1688
     1.1799   1.2208   1.2774   1.4350   1.4431   1.4734   1.4895   1.5004
     1.5103   1.5212   1.5258   1.5778   1.7563   1.8468   1.8584   2.0791

          k =-0.1254-0.1250 0.3816 (306247 PWs)   bands (ev):

   -17.7764 -17.7684 -17.7614 -17.7578 -17.7494 -17.7468 -17.7468 -17.7315
   -14.3440 -14.3388 -14.3358 -14.3343 -14.3313 -14.3264 -14.3233 -14.3219
   -14.3209 -14.3158 -14.3151 -14.3128 -14.3106 -14.3081 -14.3029 -14.3019
   -14.3004 -14.2993 -14.2968 -14.2957 -14.2896 -14.2875 -14.2874 -14.2866
   -14.2861 -14.2838 -14.2792 -14.2768 -14.2758 -14.2755 -14.2750 -14.2723
   -14.2713 -14.2702 -14.2677 -14.2667 -14.2662 -14.2633 -14.2592 -14.2587
   -10.8003 -10.7928 -10.7896 -10.7874 -10.7856 -10.7790 -10.7697 -10.7639
    -9.7992  -9.7324  -9.6068  -9.6004  -9.5385  -9.5326  -9.4468  -9.4141
    -9.3497  -9.3462  -9.3419  -9.3380  -9.3226  -9.3060  -9.2938  -9.2914
    -9.2527  -9.2030  -9.1984  -9.1692  -9.1390  -9.1336  -9.1135  -9.1119
    -7.2780  -7.2662  -7.2653  -7.2638  -7.2634  -7.2524  -7.2474  -7.2464
    -7.1169  -7.1061  -7.1021  -7.0917  -7.0903  -7.0840  -7.0776  -7.0757
    -5.8990  -5.6670  -5.4665  -5.4522  -5.2441  -5.2298  -5.1689  -5.1595
    -5.1583  -5.1533  -5.1477  -5.1432  -5.1265  -5.1143  -5.0303  -4.8135
    -3.0356  -3.0323  -3.0228  -3.0211  -3.0175  -3.0156  -3.0131  -3.0092
    -2.9970  -2.9893  -2.9710  -2.9665  -2.9642  -2.9496  -2.9421  -2.9346
    -0.9866  -0.9143  -0.9063  -0.9031  -0.8794  -0.8508  -0.8447  -0.8240
    -0.6143  -0.5468  -0.5422  -0.4439   0.0055   0.1064   0.1103   0.1286
     0.1453   0.1929   0.2648   0.2694   0.3082   0.3328   0.3521   0.3529
     0.3836   0.4130   0.5926   0.5999   0.6056   0.6103   0.7909   0.8117
     0.8359   0.8468   0.8538   0.8593   0.8614   0.8741   0.9157   0.9259
     0.9286   0.9352   0.9611   0.9709   1.0242   1.0493   1.0971   1.1034
     1.1114   1.1194   1.1255   1.1317   1.1377   1.1556   1.2036   1.2193
     1.2345   1.2364   1.2439   1.2595   1.3130   1.3915   1.3956   1.4222
     1.4940   1.5238   1.5799   1.5879   1.5935   1.6119   1.6224   1.6919

          k =-0.1254 0.1250-0.3816 (306247 PWs)   bands (ev):

   -17.7764 -17.7684 -17.7614 -17.7578 -17.7494 -17.7468 -17.7468 -17.7315
   -14.3440 -14.3388 -14.3358 -14.3343 -14.3313 -14.3264 -14.3233 -14.3219
   -14.3209 -14.3158 -14.3151 -14.3128 -14.3106 -14.3081 -14.3029 -14.3019
   -14.3003 -14.2993 -14.2968 -14.2957 -14.2896 -14.2875 -14.2874 -14.2866
   -14.2861 -14.2838 -14.2792 -14.2768 -14.2758 -14.2755 -14.2750 -14.2723
   -14.2713 -14.2702 -14.2677 -14.2667 -14.2662 -14.2633 -14.2592 -14.2587
   -10.8004 -10.7940 -10.7903 -10.7867 -10.7847 -10.7801 -10.7685 -10.7635
    -9.8014  -9.7318  -9.6053  -9.5979  -9.5389  -9.5364  -9.4383  -9.3985
    -9.3691  -9.3594  -9.3398  -9.3366  -9.3312  -9.3240  -9.2785  -9.2679
    -9.2546  -9.2034  -9.1986  -9.1731  -9.1393  -9.1344  -9.1135  -9.1099
    -7.2780  -7.2661  -7.2652  -7.2638  -7.2634  -7.2522  -7.2481  -7.2461
    -7.1170  -7.1061  -7.1022  -7.0916  -7.0903  -7.0839  -7.0775  -7.0758
    -5.8973  -5.6650  -5.4686  -5.4550  -5.2506  -5.2352  -5.1670  -5.1621
    -5.1557  -5.1532  -5.1484  -5.1413  -5.1226  -5.1118  -5.0274  -4.8119
    -3.0357  -3.0327  -3.0235  -3.0211  -3.0171  -3.0156  -3.0125  -3.0100
    -2.9963  -2.9873  -2.9722  -2.9665  -2.9656  -2.9505  -2.9413  -2.9337
    -1.0692  -1.0030  -0.8945  -0.8822  -0.8360  -0.8277  -0.8183  -0.7473
    -0.6050  -0.5420  -0.5365  -0.4453   0.0026   0.1080   0.1108   0.1325
     0.1477   0.2070   0.2625   0.2689   0.2726   0.3245   0.3442   0.3487
     0.3575   0.4135   0.5812   0.6053   0.6078   0.6136   0.7678   0.7802
     0.7861   0.8327   0.8390   0.8529   0.8658   0.8846   0.9312   0.9587
     0.9628   0.9740   0.9865   1.0007   1.0261   1.0419   1.0647   1.0815
     1.0896   1.1006   1.1197   1.1278   1.1377   1.1812   1.1890   1.2163
     1.2376   1.2454   1.2555   1.2660   1.3313   1.3895   1.3985   1.4139
     1.4708   1.5012   1.5164   1.5216   1.5710   1.5977   1.7707   1.8321

          k = 0.1254-0.1250-0.3816 (306247 PWs)   bands (ev):

   -17.7764 -17.7684 -17.7614 -17.7578 -17.7494 -17.7468 -17.7468 -17.7315
   -14.3440 -14.3388 -14.3358 -14.3343 -14.3313 -14.3264 -14.3233 -14.3219
   -14.3209 -14.3158 -14.3151 -14.3128 -14.3106 -14.3081 -14.3029 -14.3019
   -14.3003 -14.2993 -14.2968 -14.2957 -14.2896 -14.2875 -14.2874 -14.2866
   -14.2861 -14.2838 -14.2792 -14.2768 -14.2758 -14.2755 -14.2750 -14.2723
   -14.2713 -14.2702 -14.2677 -14.2667 -14.2662 -14.2633 -14.2592 -14.2587
   -10.8004 -10.7940 -10.7904 -10.7866 -10.7847 -10.7801 -10.7685 -10.7635
    -9.8014  -9.7318  -9.6035  -9.5997  -9.5412  -9.5341  -9.4392  -9.3971
    -9.3688  -9.3597  -9.3412  -9.3357  -9.3315  -9.3236  -9.2794  -9.2671
    -9.2551  -9.2030  -9.1984  -9.1728  -9.1394  -9.1345  -9.1135  -9.1102
    -7.2780  -7.2661  -7.2653  -7.2639  -7.2633  -7.2520  -7.2479  -7.2465
    -7.1170  -7.1061  -7.1023  -7.0916  -7.0902  -7.0839  -7.0774  -7.0760
    -5.8973  -5.6650  -5.4691  -5.4542  -5.2486  -5.2382  -5.1673  -5.1622
    -5.1552  -5.1532  -5.1489  -5.1406  -5.1226  -5.1118  -5.0274  -4.8117
    -3.0359  -3.0328  -3.0229  -3.0207  -3.0182  -3.0159  -3.0123  -3.0097
    -2.9961  -2.9875  -2.9718  -2.9681  -2.9645  -2.9504  -2.9413  -2.9337
    -1.0692  -1.0031  -0.8942  -0.8861  -0.8361  -0.8305  -0.8224  -0.7447
    -0.5983  -0.5389  -0.5327  -0.4437   0.0003   0.1033   0.1085   0.1319
     0.1490   0.2061   0.2588   0.2713   0.2733   0.3276   0.3400   0.3524
     0.3545   0.4127   0.5805   0.6011   0.6090   0.6187   0.7690   0.7787
     0.7855   0.8328   0.8456   0.8558   0.8608   0.8834   0.9319   0.9589
     0.9667   0.9731   0.9861   1.0021   1.0270   1.0374   1.0649   1.0784
     1.0847   1.1042   1.1194   1.1275   1.1403   1.1795   1.1924   1.2164
     1.2272   1.2539   1.2559   1.2661   1.3328   1.3884   1.3972   1.4111
     1.4696   1.5028   1.5138   1.5254   1.5737   1.5971   1.7701   1.8346

          k =-0.1254-0.3751 0.1272 (306263 PWs)   bands (ev):

   -17.7764 -17.7684 -17.7614 -17.7578 -17.7494 -17.7468 -17.7468 -17.7315
   -14.3474 -14.3364 -14.3348 -14.3341 -14.3331 -14.3248 -14.3242 -14.3232
   -14.3221 -14.3176 -14.3123 -14.3119 -14.3094 -14.3052 -14.3040 -14.3034
   -14.3003 -14.2992 -14.2968 -14.2957 -14.2895 -14.2876 -14.2874 -14.2865
   -14.2861 -14.2838 -14.2791 -14.2768 -14.2758 -14.2755 -14.2749 -14.2723
   -14.2713 -14.2702 -14.2678 -14.2668 -14.2662 -14.2633 -14.2593 -14.2586
   -10.8006 -10.7917 -10.7908 -10.7869 -10.7840 -10.7771 -10.7733 -10.7641
    -9.7923  -9.7210  -9.6250  -9.6032  -9.5469  -9.5335  -9.4374  -9.4207
    -9.3518  -9.3396  -9.3373  -9.3301  -9.3252  -9.3189  -9.2855  -9.2792
    -9.2559  -9.2147  -9.2073  -9.1717  -9.1435  -9.1316  -9.1091  -9.0977
    -7.2882  -7.2767  -7.2758  -7.2732  -7.2552  -7.2430  -7.2389  -7.2365
    -7.1203  -7.1050  -7.1019  -7.0948  -7.0891  -7.0852  -7.0747  -7.0719
    -5.9298  -5.7450  -5.4844  -5.3747  -5.3246  -5.1961  -5.1625  -5.1567
    -5.1513  -5.1502  -5.1461  -5.1403  -5.1334  -5.1155  -4.9245  -4.7602
    -3.0372  -3.0339  -3.0262  -3.0225  -3.0176  -3.0145  -3.0124  -3.0082
    -2.9929  -2.9823  -2.9779  -2.9649  -2.9591  -2.9503  -2.9457  -2.9403
    -1.0869  -1.0478  -0.9907  -0.9821  -0.9688  -0.9354  -0.8489  -0.8404
    -0.5669  -0.5300  -0.4322  -0.4051   0.0387   0.0866   0.1266   0.1562
     0.1811   0.1921   0.2187   0.2486   0.2886   0.3048   0.3420   0.3939
     0.4031   0.4624   0.5854   0.5920   0.6015   0.6850   0.6965   0.7785
     0.7994   0.8160   0.8300   0.8584   0.8623   0.8736   0.8799   0.8949
     0.9063   0.9342   0.9484   0.9892   1.0218   1.0404   1.1234   1.1340
     1.1388   1.1487   1.1531   1.1673   1.1779   1.1860   1.2017   1.2425
     1.2669   1.2798   1.2837   1.3386   1.3573   1.3895   1.4046   1.4363
     1.5072   1.5276   1.5520   1.5758   1.5836   1.6567   1.8670   1.9026

          k =-0.1254 0.3751-0.1272 (306263 PWs)   bands (ev):

   -17.7764 -17.7684 -17.7614 -17.7578 -17.7494 -17.7468 -17.7468 -17.7315
   -14.3474 -14.3364 -14.3348 -14.3341 -14.3331 -14.3248 -14.3242 -14.3232
   -14.3221 -14.3176 -14.3123 -14.3119 -14.3094 -14.3052 -14.3041 -14.3034
   -14.3003 -14.2992 -14.2968 -14.2957 -14.2895 -14.2876 -14.2874 -14.2866
   -14.2861 -14.2838 -14.2791 -14.2768 -14.2758 -14.2755 -14.2749 -14.2723
   -14.2713 -14.2702 -14.2678 -14.2668 -14.2662 -14.2633 -14.2593 -14.2586
   -10.8006 -10.7943 -10.7889 -10.7877 -10.7831 -10.7790 -10.7712 -10.7638
    -9.7976  -9.7158  -9.6213  -9.5967  -9.5516  -9.5377  -9.4542  -9.3997
    -9.3538  -9.3431  -9.3384  -9.3301  -9.3266  -9.3229  -9.2948  -9.2729
    -9.2500  -9.2077  -9.1943  -9.1808  -9.1493  -9.1378  -9.1069  -9.0954
    -7.2882  -7.2768  -7.2758  -7.2731  -7.2545  -7.2422  -7.2402  -7.2364
    -7.1203  -7.1050  -7.1020  -7.0948  -7.0889  -7.0853  -7.0743  -7.0723
    -5.9265  -5.7489  -5.4895  -5.3673  -5.3187  -5.2142  -5.1670  -5.1632
    -5.1551  -5.1443  -5.1410  -5.1372  -5.1267  -5.1122  -4.9268  -4.7559
    -3.0379  -3.0340  -3.0268  -3.0223  -3.0172  -3.0149  -3.0121  -3.0083
    -2.9917  -2.9814  -2.9782  -2.9657  -2.9607  -2.9499  -2.9465  -2.9385
    -1.0880  -1.0642  -1.0447  -0.9745  -0.9451  -0.9377  -0.9122  -0.8136
    -0.5197  -0.4486  -0.3917  -0.3312  -0.0230   0.0370   0.1081   0.1499
     0.1702   0.1763   0.2285   0.2468   0.2645   0.2959   0.2968   0.3326
     0.3971   0.4723   0.5779   0.6203   0.6437   0.6466   0.7303   0.8125
     0.8193   0.8293   0.8484   0.8526   0.8675   0.8756   0.8984   0.9042
     0.9175   0.9231   0.9325   0.9576   1.0202   1.0421   1.1082   1.1210
     1.1366   1.1511   1.1571   1.1699   1.1760   1.1789   1.2109   1.2508
     1.2543   1.2664   1.3045   1.3223   1.3486   1.3662   1.4158   1.4321
     1.5056   1.5209   1.5329   1.5459   1.6359   1.6984   1.8611   1.9719

          k = 0.1254-0.3751-0.1272 (306263 PWs)   bands (ev):

   -17.7764 -17.7684 -17.7614 -17.7578 -17.7494 -17.7468 -17.7468 -17.7315
   -14.3474 -14.3364 -14.3348 -14.3341 -14.3331 -14.3248 -14.3242 -14.3232
   -14.3221 -14.3176 -14.3123 -14.3119 -14.3094 -14.3052 -14.3041 -14.3034
   -14.3003 -14.2992 -14.2968 -14.2957 -14.2895 -14.2876 -14.2874 -14.2866
   -14.2861 -14.2838 -14.2791 -14.2768 -14.2758 -14.2755 -14.2749 -14.2723
   -14.2713 -14.2702 -14.2678 -14.2668 -14.2662 -14.2633 -14.2593 -14.2586
   -10.8006 -10.7943 -10.7889 -10.7876 -10.7830 -10.7790 -10.7712 -10.7638
    -9.7981  -9.7147  -9.6204  -9.5976  -9.5540  -9.5378  -9.4514  -9.3988
    -9.3559  -9.3423  -9.3396  -9.3316  -9.3258  -9.3222  -9.2939  -9.2726
    -9.2505  -9.2080  -9.1945  -9.1802  -9.1491  -9.1375  -9.1070  -9.0958
    -7.2882  -7.2766  -7.2758  -7.2732  -7.2546  -7.2420  -7.2403  -7.2366
    -7.1203  -7.1051  -7.1020  -7.0948  -7.0890  -7.0851  -7.0744  -7.0723
    -5.9265  -5.7490  -5.4888  -5.3676  -5.3195  -5.2126  -5.1681  -5.1635
    -5.1553  -5.1439  -5.1406  -5.1380  -5.1267  -5.1124  -4.9260  -4.7560
    -3.0383  -3.0340  -3.0265  -3.0219  -3.0181  -3.0149  -3.0121  -3.0077
    -2.9919  -2.9804  -2.9786  -2.9663  -2.9608  -2.9496  -2.9464  -2.9386
    -1.0966  -1.0595  -1.0404  -0.9777  -0.9446  -0.9384  -0.9117  -0.8141
    -0.5155  -0.4446  -0.3911  -0.3291  -0.0264   0.0334   0.1172   0.1444
     0.1646   0.1754   0.2291   0.2407   0.2644   0.2924   0.2983   0.3332
     0.4111   0.4643   0.5879   0.6178   0.6266   0.6452   0.7556   0.8004
     0.8226   0.8364   0.8449   0.8481   0.8677   0.8778   0.8961   0.9025
     0.9077   0.9279   0.9468   0.9486   1.0254   1.0404   1.1018   1.1184
     1.1397   1.1529   1.1585   1.1638   1.1741   1.1828   1.2269   1.2431
     1.2466   1.2582   1.3071   1.3180   1.3500   1.3677   1.4179   1.4462
     1.5045   1.5125   1.5318   1.5430   1.6444   1.6983   1.8543   1.9780

          k =-0.1254-0.3751 0.3816 (306242 PWs)   bands (ev):

   -17.7764 -17.7684 -17.7614 -17.7578 -17.7494 -17.7468 -17.7468 -17.7315
   -14.3438 -14.3384 -14.3346 -14.3333 -14.3321 -14.3268 -14.3241 -14.3220
   -14.3213 -14.3155 -14.3143 -14.3121 -14.3097 -14.3085 -14.3041 -14.3034
   -14.3003 -14.2992 -14.2968 -14.2957 -14.2895 -14.2875 -14.2874 -14.2866
   -14.2861 -14.2838 -14.2791 -14.2768 -14.2758 -14.2755 -14.2750 -14.2723
   -14.2713 -14.2702 -14.2677 -14.2667 -14.2662 -14.2633 -14.2592 -14.2587
   -10.8000 -10.7905 -10.7894 -10.7885 -10.7854 -10.7773 -10.7727 -10.7648
    -9.7548  -9.6923  -9.6847  -9.6163  -9.5686  -9.5093  -9.5046  -9.4624
    -9.3516  -9.3420  -9.3287  -9.3219  -9.2913  -9.2649  -9.2549  -9.2491
    -9.2215  -9.2136  -9.1926  -9.1856  -9.1574  -9.1433  -9.1385  -9.1308
    -7.2780  -7.2660  -7.2652  -7.2640  -7.2633  -7.2519  -7.2484  -7.2467
    -7.1167  -7.1058  -7.1015  -7.0924  -7.0901  -7.0840  -7.0777  -7.0760
    -5.7852  -5.6029  -5.5571  -5.3780  -5.3508  -5.2181  -5.1779  -5.1674
    -5.1520  -5.1465  -5.1410  -5.1354  -5.1259  -5.1115  -5.0881  -4.9403
    -3.0355  -3.0318  -3.0229  -3.0219  -3.0173  -3.0154  -3.0142  -3.0101
    -2.9896  -2.9845  -2.9763  -2.9655  -2.9591  -2.9495  -2.9465  -2.9401
    -0.9579  -0.9522  -0.8961  -0.8889  -0.6660  -0.6009  -0.5852  -0.4970
    -0.4902  -0.4710  -0.4625  -0.4315  -0.0044   0.0503   0.0687   0.0815
     0.1186   0.1320   0.1519   0.1688   0.2408   0.2523   0.2625   0.3190
     0.3600   0.4138   0.4267   0.4649   0.5724   0.6155   0.6503   0.6824
     0.6922   0.7115   0.7821   0.7857   0.8099   0.8211   0.8710   0.8826
     0.9159   0.9608   0.9892   0.9995   1.0202   1.0926   1.1029   1.1130
     1.1240   1.1255   1.1421   1.2035   1.2253   1.2459   1.2511   1.2649
     1.2748   1.2768   1.2899   1.2967   1.3030   1.3407   1.3645   1.3741
     1.3957   1.4009   1.4110   1.4691   1.5787   1.5884   1.6106   1.6509

          k =-0.1254 0.3751-0.3816 (306242 PWs)   bands (ev):

   -17.7764 -17.7684 -17.7614 -17.7578 -17.7494 -17.7468 -17.7468 -17.7315
   -14.3438 -14.3384 -14.3346 -14.3333 -14.3321 -14.3268 -14.3241 -14.3220
   -14.3213 -14.3155 -14.3143 -14.3121 -14.3097 -14.3085 -14.3041 -14.3034
   -14.3003 -14.2992 -14.2968 -14.2957 -14.2895 -14.2875 -14.2874 -14.2866
   -14.2861 -14.2838 -14.2791 -14.2768 -14.2758 -14.2755 -14.2750 -14.2723
   -14.2713 -14.2702 -14.2677 -14.2667 -14.2662 -14.2633 -14.2592 -14.2587
   -10.8001 -10.7927 -10.7897 -10.7872 -10.7844 -10.7792 -10.7708 -10.7644
    -9.7590  -9.6920  -9.6818  -9.6158  -9.5645  -9.5118  -9.5070  -9.4537
    -9.3558  -9.3488  -9.3335  -9.3296  -9.2833  -9.2614  -9.2557  -9.2429
    -9.2150  -9.2097  -9.2008  -9.1855  -9.1636  -9.1452  -9.1396  -9.1248
    -7.2780  -7.2659  -7.2651  -7.2640  -7.2631  -7.2512  -7.2497  -7.2463
    -7.1167  -7.1058  -7.1016  -7.0923  -7.0900  -7.0839  -7.0774  -7.0764
    -5.7808  -5.6078  -5.5514  -5.3858  -5.3588  -5.2078  -5.1909  -5.1571
    -5.1568  -5.1500  -5.1459  -5.1290  -5.1218  -5.1074  -5.0879  -4.9377
    -3.0355  -3.0321  -3.0235  -3.0221  -3.0170  -3.0149  -3.0145  -3.0105
    -2.9878  -2.9824  -2.9785  -2.9662  -2.9610  -2.9493  -2.9469  -2.9383
    -1.0245  -0.9623  -0.9214  -0.8597  -0.6653  -0.5903  -0.5756  -0.4933
    -0.4517  -0.4236  -0.4091  -0.3694  -0.0236   0.0204   0.0346   0.0431
     0.0832   0.1320   0.1542   0.1784   0.2228   0.2506   0.2623   0.2996
     0.3181   0.3833   0.4472   0.4928   0.5956   0.6245   0.6445   0.6602
     0.6936   0.7033   0.7492   0.7961   0.8053   0.8239   0.8763   0.9007
     0.9269   0.9803   0.9862   1.0051   1.0399   1.0894   1.1031   1.1150
     1.1198   1.1284   1.1356   1.2034   1.2252   1.2327   1.2523   1.2562
     1.2683   1.2817   1.2965   1.3034   1.3252   1.3368   1.3480   1.3644
     1.3766   1.3895   1.4048   1.4428   1.5223   1.5950   1.7018   1.7407

          k = 0.1254-0.3751-0.3816 (306242 PWs)   bands (ev):

   -17.7764 -17.7684 -17.7614 -17.7578 -17.7494 -17.7468 -17.7468 -17.7315
   -14.3438 -14.3384 -14.3346 -14.3333 -14.3321 -14.3268 -14.3241 -14.3220
   -14.3213 -14.3155 -14.3143 -14.3121 -14.3097 -14.3085 -14.3041 -14.3034
   -14.3003 -14.2992 -14.2968 -14.2957 -14.2895 -14.2875 -14.2874 -14.2866
   -14.2861 -14.2838 -14.2791 -14.2768 -14.2758 -14.2755 -14.2750 -14.2723
   -14.2713 -14.2702 -14.2677 -14.2667 -14.2662 -14.2633 -14.2592 -14.2587
   -10.8001 -10.7928 -10.7898 -10.7871 -10.7844 -10.7792 -10.7707 -10.7644
    -9.7602  -9.6905  -9.6788  -9.6198  -9.5669  -9.5090  -9.5064  -9.4530
    -9.3578  -9.3474  -9.3350  -9.3293  -9.2803  -9.2624  -9.2581  -9.2418
    -9.2169  -9.2092  -9.1989  -9.1863  -9.1626  -9.1445  -9.1396  -9.1261
    -7.2780  -7.2659  -7.2651  -7.2641  -7.2632  -7.2509  -7.2495  -7.2467
    -7.1167  -7.1059  -7.1017  -7.0922  -7.0901  -7.0838  -7.0774  -7.0764
    -5.7806  -5.6084  -5.5518  -5.3845  -5.3562  -5.2115  -5.1966  -5.1579
    -5.1556  -5.1500  -5.1465  -5.1287  -5.1215  -5.1054  -5.0831  -4.9387
    -3.0358  -3.0324  -3.0232  -3.0213  -3.0178  -3.0163  -3.0129  -3.0104
    -2.9882  -2.9818  -2.9782  -2.9670  -2.9611  -2.9490  -2.9468  -2.9384
    -1.0263  -0.9613  -0.9196  -0.8604  -0.6807  -0.5995  -0.5794  -0.4884
    -0.4465  -0.4053  -0.3964  -0.3511  -0.0468   0.0099   0.0273   0.0348
     0.0718   0.1304   0.1611   0.1845   0.2394   0.2488   0.2610   0.3062
     0.3077   0.3976   0.4588   0.4659   0.5927   0.6150   0.6567   0.6665
     0.7030   0.7099   0.7494   0.7930   0.8008   0.8118   0.8765   0.8963
     0.9359   0.9778   0.9843   1.0183   1.0505   1.0813   1.0888   1.1044
     1.1209   1.1297   1.1435   1.2155   1.2342   1.2369   1.2420   1.2519
     1.2637   1.2823   1.2847   1.3055   1.3194   1.3328   1.3404   1.3732
     1.3871   1.4014   1.4150   1.4279   1.5216   1.5919   1.7017   1.7438

          k =-0.3762-0.1250 0.1272 (306313 PWs)   bands (ev):

   -17.7764 -17.7684 -17.7614 -17.7578 -17.7494 -17.7468 -17.7468 -17.7315
   -14.3475 -14.3371 -14.3355 -14.3335 -14.3325 -14.3255 -14.3227 -14.3224
   -14.3203 -14.3185 -14.3136 -14.3127 -14.3112 -14.3058 -14.3034 -14.3020
   -14.3003 -14.2992 -14.2968 -14.2957 -14.2895 -14.2876 -14.2874 -14.2865
   -14.2861 -14.2838 -14.2791 -14.2768 -14.2758 -14.2755 -14.2749 -14.2723
   -14.2713 -14.2702 -14.2678 -14.2668 -14.2662 -14.2633 -14.2593 -14.2586
   -10.8005 -10.7929 -10.7895 -10.7869 -10.7842 -10.7767 -10.7737 -10.7642
    -9.7924  -9.7170  -9.6257  -9.6085  -9.5445  -9.5366  -9.4400  -9.4194
    -9.3537  -9.3444  -9.3364  -9.3291  -9.3216  -9.3031  -9.2916  -9.2768
    -9.2569  -9.2155  -9.2135  -9.1682  -9.1423  -9.1354  -9.1177  -9.0891
    -7.2882  -7.2772  -7.2750  -7.2735  -7.2550  -7.2437  -7.2381  -7.2366
    -7.1203  -7.1053  -7.1020  -7.0940  -7.0890  -7.0856  -7.0745  -7.0720
    -5.9266  -5.7351  -5.4956  -5.3720  -5.3291  -5.1871  -5.1609  -5.1569
    -5.1562  -5.1505  -5.1436  -5.1370  -5.1351  -5.1164  -4.9348  -4.7645
    -3.0372  -3.0360  -3.0245  -3.0215  -3.0189  -3.0144  -3.0124  -3.0079
    -2.9930  -2.9800  -2.9757  -2.9657  -2.9638  -2.9487  -2.9455  -2.9410
    -1.0850  -1.0390  -0.9911  -0.9860  -0.9608  -0.9351  -0.8497  -0.8225
    -0.5657  -0.5319  -0.4258  -0.4144   0.0386   0.0912   0.1327   0.1694
     0.1846   0.1920   0.2195   0.2497   0.2830   0.2983   0.3414   0.3834
     0.3929   0.4608   0.5899   0.5964   0.6111   0.6915   0.6977   0.7779
     0.8007   0.8155   0.8270   0.8475   0.8671   0.8739   0.8782   0.8966
     0.9116   0.9366   0.9424   0.9943   1.0057   1.0513   1.1247   1.1282
     1.1338   1.1476   1.1540   1.1584   1.1720   1.1833   1.2008   1.2557
     1.2708   1.2745   1.2835   1.3479   1.3668   1.3963   1.4077   1.4262
     1.4933   1.5260   1.5517   1.5537   1.5679   1.6589   1.8553   1.8904

          k =-0.3762 0.1250-0.1272 (306313 PWs)   bands (ev):

   -17.7764 -17.7684 -17.7614 -17.7578 -17.7494 -17.7468 -17.7468 -17.7315
   -14.3475 -14.3371 -14.3355 -14.3335 -14.3325 -14.3255 -14.3227 -14.3224
   -14.3203 -14.3185 -14.3136 -14.3127 -14.3112 -14.3058 -14.3034 -14.3020
   -14.3003 -14.2992 -14.2968 -14.2957 -14.2895 -14.2876 -14.2874 -14.2865
   -14.2861 -14.2838 -14.2791 -14.2768 -14.2758 -14.2755 -14.2749 -14.2723
   -14.2713 -14.2702 -14.2678 -14.2668 -14.2662 -14.2633 -14.2593 -14.2586
   -10.8005 -10.7948 -10.7883 -10.7878 -10.7833 -10.7787 -10.7713 -10.7638
    -9.7981  -9.7108  -9.6212  -9.6031  -9.5518  -9.5405  -9.4523  -9.3993
    -9.3582  -9.3484  -9.3380  -9.3291  -9.3195  -9.3098  -9.2965  -9.2739
    -9.2525  -9.2089  -9.1988  -9.1781  -9.1478  -9.1405  -9.1145  -9.0878
    -7.2882  -7.2773  -7.2750  -7.2734  -7.2543  -7.2435  -7.2390  -7.2366
    -7.1204  -7.1053  -7.1021  -7.0940  -7.0889  -7.0857  -7.0742  -7.0724
    -5.9234  -5.7390  -5.5003  -5.3647  -5.3236  -5.2052  -5.1681  -5.1632
    -5.1562  -5.1457  -5.1409  -5.1332  -5.1275  -5.1131  -4.9360  -4.7605
    -3.0382  -3.0360  -3.0247  -3.0213  -3.0191  -3.0149  -3.0121  -3.0075
    -2.9922  -2.9775  -2.9764  -2.9670  -2.9656  -2.9495  -2.9452  -2.9393
    -1.0909  -1.0588  -1.0321  -0.9809  -0.9432  -0.9342  -0.9066  -0.8032
    -0.5198  -0.4471  -0.3929  -0.3312  -0.0253   0.0412   0.1182   0.1591
     0.1678   0.1912   0.2315   0.2320   0.2602   0.2848   0.2952   0.3311
     0.4014   0.4551   0.5892   0.6250   0.6336   0.6549   0.7553   0.8031
     0.8216   0.8295   0.8441   0.8493   0.8667   0.8720   0.8948   0.9033
     0.9082   0.9296   0.9490   0.9533   1.0089   1.0528   1.1009   1.1190
     1.1396   1.1460   1.1569   1.1624   1.1670   1.1773   1.2252   1.2440
     1.2509   1.2603   1.3088   1.3316   1.3542   1.3717   1.4251   1.4422
     1.4800   1.4954   1.5303   1.5431   1.6442   1.6841   1.8410   1.9646

          k = 0.3762-0.1250-0.1272 (306313 PWs)   bands (ev):

   -17.7764 -17.7684 -17.7614 -17.7578 -17.7494 -17.7468 -17.7468 -17.7315
   -14.3475 -14.3371 -14.3355 -14.3335 -14.3325 -14.3255 -14.3227 -14.3224
   -14.3203 -14.3185 -14.3136 -14.3127 -14.3112 -14.3058 -14.3034 -14.3020
   -14.3003 -14.2992 -14.2968 -14.2957 -14.2895 -14.2876 -14.2874 -14.2865
   -14.2861 -14.2838 -14.2791 -14.2768 -14.2758 -14.2755 -14.2749 -14.2723
   -14.2713 -14.2702 -14.2678 -14.2668 -14.2662 -14.2633 -14.2593 -14.2586
   -10.8005 -10.7947 -10.7883 -10.7877 -10.7833 -10.7787 -10.7714 -10.7638
    -9.7976  -9.7119  -9.6222  -9.6021  -9.5493  -9.5408  -9.4553  -9.3989
    -9.3558  -9.3482  -9.3372  -9.3286  -9.3211  -9.3101  -9.2988  -9.2735
    -9.2519  -9.2084  -9.1981  -9.1783  -9.1478  -9.1410  -9.1145  -9.0878
    -7.2882  -7.2772  -7.2750  -7.2735  -7.2544  -7.2434  -7.2388  -7.2369
    -7.1203  -7.1054  -7.1021  -7.0940  -7.0890  -7.0856  -7.0743  -7.0724
    -5.9233  -5.7389  -5.5006  -5.3647  -5.3233  -5.2072  -5.1670  -5.1630
    -5.1560  -5.1459  -5.1410  -5.1322  -5.1275  -5.1129  -4.9369  -4.7601
    -3.0382  -3.0360  -3.0245  -3.0217  -3.0188  -3.0148  -3.0120  -3.0079
    -2.9918  -2.9776  -2.9771  -2.9669  -2.9649  -2.9495  -2.9457  -2.9391
    -1.0923  -1.0561  -1.0422  -0.9799  -0.9438  -0.9251  -0.9065  -0.8025
    -0.5207  -0.4468  -0.3925  -0.3312  -0.0244   0.0422   0.1159   0.1595
     0.1640   0.1920   0.2313   0.2418   0.2594   0.2907   0.2934   0.3287
     0.3827   0.4662   0.5809   0.6260   0.6511   0.6534   0.7276   0.8114
     0.8255   0.8312   0.8453   0.8519   0.8694   0.8726   0.8964   0.9043
     0.9134   0.9279   0.9366   0.9547   1.0052   1.0492   1.1041   1.1231
     1.1329   1.1429   1.1571   1.1641   1.1713   1.1811   1.2106   1.2497
     1.2630   1.2671   1.3062   1.3352   1.3548   1.3698   1.4176   1.4265
     1.4809   1.5025   1.5339   1.5464   1.6381   1.6836   1.8477   1.9666

          k =-0.3762-0.1250 0.3816 (306256 PWs)   bands (ev):

   -17.7764 -17.7684 -17.7614 -17.7578 -17.7494 -17.7468 -17.7468 -17.7315
   -14.3439 -14.3387 -14.3353 -14.3337 -14.3309 -14.3261 -14.3224 -14.3220
   -14.3202 -14.3161 -14.3156 -14.3134 -14.3112 -14.3087 -14.3035 -14.3024
   -14.3003 -14.2992 -14.2968 -14.2957 -14.2895 -14.2875 -14.2874 -14.2866
   -14.2861 -14.2838 -14.2791 -14.2768 -14.2758 -14.2755 -14.2750 -14.2723
   -14.2713 -14.2702 -14.2677 -14.2667 -14.2662 -14.2633 -14.2592 -14.2587
   -10.7999 -10.7913 -10.7888 -10.7881 -10.7856 -10.7769 -10.7731 -10.7648
    -9.7551  -9.6928  -9.6810  -9.6129  -9.5732  -9.5126  -9.5090  -9.4635
    -9.3552  -9.3469  -9.3149  -9.3060  -9.2895  -9.2641  -9.2592  -9.2538
    -9.2289  -9.2176  -9.1890  -9.1839  -9.1644  -9.1447  -9.1409  -9.1216
    -7.2780  -7.2660  -7.2652  -7.2640  -7.2631  -7.2523  -7.2482  -7.2465
    -7.1167  -7.1059  -7.1018  -7.0916  -7.0895  -7.0849  -7.0774  -7.0762
    -5.7821  -5.5934  -5.5542  -5.3686  -5.3609  -5.2216  -5.1818  -5.1710
    -5.1499  -5.1450  -5.1401  -5.1374  -5.1285  -5.1124  -5.0930  -4.9442
    -3.0355  -3.0321  -3.0225  -3.0210  -3.0181  -3.0156  -3.0140  -3.0104
    -2.9899  -2.9826  -2.9730  -2.9663  -2.9646  -2.9474  -2.9466  -2.9409
    -0.9570  -0.9316  -0.8970  -0.8716  -0.6755  -0.6069  -0.5913  -0.4920
    -0.4844  -0.4788  -0.4533  -0.4250  -0.0101   0.0477   0.0672   0.0776
     0.1166   0.1298   0.1585   0.1717   0.2428   0.2458   0.2631   0.3201
     0.3695   0.4228   0.4298   0.4723   0.5755   0.6084   0.6524   0.6784
     0.6985   0.7060   0.7771   0.7929   0.8039   0.8110   0.8724   0.8849
     0.9171   0.9612   0.9858   0.9986   1.0206   1.0890   1.1057   1.1115
     1.1181   1.1314   1.1471   1.2047   1.2165   1.2395   1.2548   1.2662
     1.2709   1.2759   1.2844   1.2951   1.3094   1.3467   1.3575   1.3827
     1.3968   1.4083   1.4159   1.4817   1.5574   1.5673   1.5909   1.6263

          k =-0.3762 0.1250-0.3816 (306256 PWs)   bands (ev):

   -17.7764 -17.7684 -17.7614 -17.7578 -17.7494 -17.7468 -17.7468 -17.7315
   -14.3439 -14.3387 -14.3353 -14.3337 -14.3309 -14.3261 -14.3224 -14.3220
   -14.3202 -14.3161 -14.3156 -14.3134 -14.3112 -14.3087 -14.3035 -14.3024
   -14.3003 -14.2992 -14.2968 -14.2957 -14.2895 -14.2875 -14.2874 -14.2866
   -14.2861 -14.2838 -14.2791 -14.2768 -14.2758 -14.2755 -14.2750 -14.2723
   -14.2713 -14.2702 -14.2677 -14.2667 -14.2662 -14.2633 -14.2592 -14.2587
   -10.7999 -10.7931 -10.7896 -10.7869 -10.7846 -10.7789 -10.7709 -10.7645
    -9.7604  -9.6910  -9.6749  -9.6166  -9.5721  -9.5127  -9.5085  -9.4561
    -9.3615  -9.3527  -9.3217  -9.3135  -9.2789  -9.2625  -9.2595  -9.2472
    -9.2212  -9.2157  -9.1976  -9.1842  -9.1678  -9.1435  -9.1423  -9.1190
    -7.2780  -7.2659  -7.2651  -7.2640  -7.2630  -7.2519  -7.2490  -7.2463
    -7.1167  -7.1059  -7.1018  -7.0915  -7.0895  -7.0848  -7.0772  -7.0766
    -5.7777  -5.5989  -5.5485  -5.3754  -5.3673  -5.2136  -5.2008  -5.1595
    -5.1569  -5.1486  -5.1443  -5.1295  -5.1240  -5.1066  -5.0886  -4.9430
    -3.0356  -3.0326  -3.0233  -3.0211  -3.0177  -3.0157  -3.0133  -3.0109
    -2.9887  -2.9800  -2.9740  -2.9684  -2.9661  -2.9493  -2.9452  -2.9392
    -1.0199  -0.9559  -0.9060  -0.8505  -0.6727  -0.5961  -0.5805  -0.4934
    -0.4507  -0.4119  -0.4066  -0.3625  -0.0316   0.0124   0.0317   0.0426
     0.0807   0.1324   0.1611   0.1680   0.2334   0.2514   0.2634   0.3059
     0.3117   0.4039   0.4655   0.4731   0.5955   0.6178   0.6585   0.6661
     0.6893   0.7007   0.7509   0.7882   0.8001   0.8123   0.8791   0.8954
     0.9354   0.9777   0.9796   1.0214   1.0471   1.0804   1.0919   1.1019
     1.1234   1.1344   1.1439   1.2184   1.2243   1.2338   1.2424   1.2434
     1.2628   1.2770   1.2946   1.3061   1.3158   1.3369   1.3513   1.3779
     1.3914   1.4061   1.4124   1.4338   1.4956   1.5668   1.6876   1.7251

          k = 0.3762-0.1250-0.3816 (306256 PWs)   bands (ev):

   -17.7764 -17.7684 -17.7614 -17.7578 -17.7494 -17.7468 -17.7468 -17.7315
   -14.3439 -14.3387 -14.3353 -14.3337 -14.3309 -14.3261 -14.3224 -14.3220
   -14.3202 -14.3161 -14.3156 -14.3134 -14.3112 -14.3087 -14.3035 -14.3024
   -14.3003 -14.2992 -14.2968 -14.2957 -14.2895 -14.2875 -14.2874 -14.2866
   -14.2861 -14.2838 -14.2791 -14.2768 -14.2758 -14.2755 -14.2750 -14.2723
   -14.2713 -14.2702 -14.2677 -14.2667 -14.2662 -14.2633 -14.2592 -14.2587
   -10.8000 -10.7931 -10.7896 -10.7868 -10.7847 -10.7789 -10.7710 -10.7644
    -9.7591  -9.6925  -9.6781  -9.6126  -9.5693  -9.5161  -9.5102  -9.4548
    -9.3600  -9.3534  -9.3210  -9.3135  -9.2827  -9.2608  -9.2573  -9.2504
    -9.2191  -9.2140  -9.1984  -9.1836  -9.1690  -9.1436  -9.1423  -9.1190
    -7.2780  -7.2659  -7.2651  -7.2641  -7.2631  -7.2518  -7.2486  -7.2468
    -7.1167  -7.1060  -7.1020  -7.0915  -7.0894  -7.0848  -7.0771  -7.0766
    -5.7776  -5.5981  -5.5487  -5.3765  -5.3693  -5.2119  -5.1959  -5.1600
    -5.1563  -5.1481  -5.1445  -5.1295  -5.1241  -5.1081  -5.0928  -4.9415
    -3.0357  -3.0326  -3.0225  -3.0208  -3.0187  -3.0162  -3.0132  -3.0106
    -2.9883  -2.9801  -2.9752  -2.9678  -2.9655  -2.9492  -2.9457  -2.9390
    -1.0196  -0.9566  -0.9129  -0.8476  -0.6719  -0.5941  -0.5775  -0.4922
    -0.4494  -0.4150  -0.4049  -0.3613  -0.0268   0.0144   0.0278   0.0405
     0.0832   0.1212   0.1634   0.1773   0.2237   0.2538   0.2665   0.2970
     0.3236   0.3904   0.4508   0.5024   0.5987   0.6122   0.6425   0.6593
     0.6921   0.7005   0.7525   0.7870   0.8060   0.8242   0.8754   0.9026
     0.9335   0.9731   0.9859   1.0075   1.0346   1.0876   1.0933   1.1159
     1.1253   1.1361   1.1425   1.2079   1.2141   1.2280   1.2493   1.2592
     1.2695   1.2744   1.2961   1.3154   1.3206   1.3280   1.3599   1.3619
     1.3774   1.4004   1.4059   1.4517   1.4964   1.5709   1.6855   1.7279

          k =-0.3762-0.3751 0.1272 (306357 PWs)   bands (ev):

   -17.7764 -17.7684 -17.7614 -17.7578 -17.7494 -17.7468 -17.7468 -17.7315
   -14.3473 -14.3362 -14.3347 -14.3334 -14.3323 -14.3252 -14.3237 -14.3227
   -14.3210 -14.3183 -14.3130 -14.3121 -14.3098 -14.3058 -14.3047 -14.3038
   -14.3003 -14.2992 -14.2968 -14.2957 -14.2895 -14.2876 -14.2874 -14.2865
   -14.2861 -14.2838 -14.2791 -14.2768 -14.2758 -14.2755 -14.2749 -14.2723
   -14.2713 -14.2702 -14.2678 -14.2668 -14.2662 -14.2633 -14.2593 -14.2586
   -10.8003 -10.7945 -10.7882 -10.7876 -10.7820 -10.7789 -10.7729 -10.7642
    -9.7472  -9.6881  -9.6814  -9.6032  -9.5932  -9.5168  -9.5081  -9.4757
    -9.3445  -9.3346  -9.3205  -9.3178  -9.2795  -9.2700  -9.2531  -9.2454
    -9.2370  -9.2276  -9.2035  -9.1772  -9.1648  -9.1465  -9.1255  -9.1173
    -7.2881  -7.2767  -7.2752  -7.2740  -7.2550  -7.2438  -7.2388  -7.2366
    -7.1198  -7.1042  -7.1017  -7.0952  -7.0895  -7.0854  -7.0749  -7.0718
    -5.8149  -5.6308  -5.6211  -5.4641  -5.2810  -5.1754  -5.1633  -5.1565
    -5.1521  -5.1423  -5.1402  -5.1333  -5.1179  -5.0619  -5.0544  -4.8978
    -3.0363  -3.0331  -3.0243  -3.0210  -3.0184  -3.0152  -3.0143  -3.0105
    -2.9868  -2.9779  -2.9721  -2.9666  -2.9591  -2.9561  -2.9478  -2.9459
    -1.0537  -1.0257  -1.0174  -0.9629  -0.6843  -0.6821  -0.5810  -0.5335
    -0.5312  -0.5066  -0.4355  -0.4201  -0.0023   0.0434   0.1218   0.1680
     0.1737   0.1804   0.1854   0.1873   0.2030   0.2776   0.3109   0.3323
[...]
     1.2827   1.2893   1.3116   1.3279   1.3447   1.3584   1.3718   1.3965
     1.4368   1.4468   1.4680   1.5353   1.5482   1.5966   1.6105   1.7006

          k =-0.3753-0.3769 0.3809 (306301 PWs)   bands (ev):

   -17.8537 -17.8046 -17.7894 -17.7893 -17.7857 -17.7856 -17.7208 -17.6912
   -14.3575 -14.3538 -14.3452 -14.3438 -14.3415 -14.3391 -14.3360 -14.3332
   -14.3266 -14.3234 -14.3147 -14.3141 -14.3137 -14.3120 -14.3113 -14.3093
   -14.3083 -14.3057 -14.3050 -14.3005 -14.2997 -14.2997 -14.2964 -14.2937
   -14.2934 -14.2913 -14.2909 -14.2867 -14.2834 -14.2804 -14.2746 -14.2712
   -14.2695 -14.2681 -14.2660 -14.2659 -14.2641 -14.2633 -14.2614 -14.2592
   -10.8190 -10.8128 -10.8075 -10.7879 -10.7821 -10.7813 -10.7450 -10.7207
    -9.7206  -9.6650  -9.6605  -9.6517  -9.5957  -9.5849  -9.5744  -9.5192
    -9.3157  -9.2993  -9.2918  -9.2745  -9.2699  -9.2550  -9.2475  -9.2394
    -9.2220  -9.2073  -9.1957  -9.1914  -9.1792  -9.1616  -9.1534  -9.1394
    -7.2909  -7.2904  -7.2819  -7.2731  -7.2701  -7.2593  -7.2284  -7.2172
    -7.1938  -7.1511  -7.1448  -7.1300  -7.1264  -7.1205  -7.0992  -7.0603
    -5.6969  -5.5087  -5.4996  -5.4800  -5.3311  -5.2956  -5.2859  -5.2128
    -5.1836  -5.1699  -5.1607  -5.1568  -5.1474  -5.1081  -5.0811  -5.0475
    -3.0335  -3.0308  -3.0258  -3.0212  -3.0032  -2.9994  -2.9973  -2.9902
    -2.9855  -2.9760  -2.9724  -2.9606  -2.9598  -2.9507  -2.9475  -2.9256
    -0.7079  -0.6831  -0.6657  -0.5985  -0.5773  -0.5516  -0.5384  -0.5194
    -0.4994  -0.4877  -0.4730  -0.3802   0.0006   0.0134   0.0249   0.0473
     0.0741   0.0884   0.1069   0.1110   0.1415   0.1507   0.1559   0.2006
     0.4680   0.4822   0.4974   0.5029   0.5124   0.5694   0.5837   0.6346
     0.6394   0.6859   0.7027   0.7474   0.7619   0.7658   0.7768   0.7986
     0.8385   0.8508   0.9285   0.9376   0.9560   0.9752   1.0091   1.1562
     1.1835   1.2039   1.2191   1.2272   1.2379   1.2459   1.2617   1.2690
     1.2793   1.2860   1.2949   1.3020   1.3197   1.3262   1.3335   1.3652
     1.3744   1.4039   1.4157   1.4261   1.4315   1.4406   1.4531   1.4651

          k =-0.3753 0.3769-0.3809 (306301 PWs)   bands (ev):

   -17.8537 -17.8046 -17.7894 -17.7893 -17.7857 -17.7856 -17.7208 -17.6912
   -14.3575 -14.3538 -14.3452 -14.3438 -14.3415 -14.3391 -14.3360 -14.3332
   -14.3266 -14.3234 -14.3147 -14.3141 -14.3137 -14.3120 -14.3113 -14.3093
   -14.3083 -14.3057 -14.3050 -14.3005 -14.2997 -14.2997 -14.2964 -14.2937
   -14.2934 -14.2913 -14.2909 -14.2867 -14.2834 -14.2804 -14.2746 -14.2712
   -14.2695 -14.2681 -14.2660 -14.2659 -14.2641 -14.2633 -14.2614 -14.2592
   -10.8191 -10.8129 -10.8079 -10.7879 -10.7823 -10.7808 -10.7448 -10.7205
    -9.7334  -9.6663  -9.6495  -9.6379  -9.5915  -9.5868  -9.5811  -9.5251
    -9.3251  -9.3055  -9.2807  -9.2706  -9.2640  -9.2632  -9.2485  -9.2311
    -9.2192  -9.2098  -9.2010  -9.1972  -9.1743  -9.1615  -9.1595  -9.1324
    -7.2909  -7.2904  -7.2818  -7.2731  -7.2702  -7.2593  -7.2284  -7.2171
    -7.1939  -7.1512  -7.1448  -7.1298  -7.1264  -7.1206  -7.0992  -7.0603
    -5.6925  -5.5141  -5.5060  -5.4729  -5.3225  -5.3080  -5.3040  -5.1888
    -5.1815  -5.1729  -5.1578  -5.1565  -5.1461  -5.1102  -5.0801  -5.0513
    -3.0336  -3.0309  -3.0260  -3.0213  -3.0033  -2.9995  -2.9977  -2.9900
    -2.9850  -2.9748  -2.9729  -2.9626  -2.9586  -2.9521  -2.9467  -2.9250
    -0.8166  -0.7242  -0.6450  -0.6255  -0.5802  -0.5432  -0.4942  -0.4854
    -0.4538  -0.4417  -0.3200  -0.3063  -0.1410  -0.1009  -0.0297  -0.0078
     0.0424   0.0715   0.0772   0.1381   0.1740   0.1837   0.2199   0.2235
     0.3943   0.4546   0.5218   0.5460   0.5666   0.5812   0.5997   0.6149
     0.6641   0.6760   0.6805   0.6943   0.7256   0.7382   0.7928   0.8248
     0.8643   0.8789   0.9133   0.9496   0.9674   1.0357   1.0496   1.0712
     1.1752   1.2086   1.2164   1.2219   1.2402   1.2454   1.2491   1.2634
     1.2775   1.2856   1.2958   1.3147   1.3342   1.3400   1.3486   1.3543
     1.3605   1.3674   1.3748   1.3845   1.4116   1.4216   1.5338   1.5464

          k = 0.3753-0.3769-0.3809 (306301 PWs)   bands (ev):

   -17.8537 -17.8046 -17.7894 -17.7893 -17.7857 -17.7856 -17.7208 -17.6912
   -14.3575 -14.3538 -14.3452 -14.3438 -14.3415 -14.3391 -14.3360 -14.3332
   -14.3266 -14.3234 -14.3147 -14.3141 -14.3137 -14.3120 -14.3113 -14.3093
   -14.3083 -14.3057 -14.3050 -14.3005 -14.2997 -14.2997 -14.2964 -14.2937
   -14.2934 -14.2913 -14.2909 -14.2867 -14.2834 -14.2804 -14.2746 -14.2712
   -14.2695 -14.2681 -14.2660 -14.2659 -14.2641 -14.2633 -14.2614 -14.2592
   -10.8192 -10.8128 -10.8079 -10.7880 -10.7821 -10.7808 -10.7448 -10.7205
    -9.7336  -9.6668  -9.6444  -9.6421  -9.5946  -9.5850  -9.5797  -9.5255
    -9.3231  -9.3066  -9.2791  -9.2743  -9.2661  -9.2619  -9.2471  -9.2324
    -9.2202  -9.2079  -9.2010  -9.1944  -9.1726  -9.1643  -9.1603  -9.1322
    -7.2911  -7.2902  -7.2818  -7.2735  -7.2697  -7.2594  -7.2284  -7.2172
    -7.1939  -7.1510  -7.1450  -7.1300  -7.1263  -7.1205  -7.0992  -7.0603
    -5.6926  -5.5133  -5.5069  -5.4724  -5.3236  -5.3102  -5.3013  -5.1888
    -5.1807  -5.1732  -5.1580  -5.1567  -5.1460  -5.1090  -5.0817  -5.0509
    -3.0338  -3.0319  -3.0254  -3.0205  -3.0035  -2.9994  -2.9976  -2.9901
    -2.9848  -2.9750  -2.9727  -2.9635  -2.9578  -2.9527  -2.9463  -2.9250
    -0.8132  -0.7256  -0.6375  -0.6303  -0.5834  -0.5481  -0.4993  -0.4820
    -0.4614  -0.4351  -0.3130  -0.3105  -0.1338  -0.1030  -0.0196  -0.0157
     0.0439   0.0703   0.0787   0.1351   0.1732   0.1829   0.2180   0.2235
     0.3977   0.4523   0.5317   0.5382   0.5649   0.5772   0.5911   0.6258
     0.6571   0.6769   0.6869   0.6953   0.7245   0.7375   0.7931   0.8242
     0.8663   0.8770   0.9124   0.9521   0.9634   1.0374   1.0506   1.0760
     1.1739   1.2099   1.2172   1.2240   1.2333   1.2457   1.2521   1.2706
     1.2783   1.2856   1.2892   1.3111   1.3317   1.3400   1.3427   1.3563
     1.3599   1.3656   1.3770   1.3902   1.4110   1.4237   1.5333   1.5454

     highest occupied level (ev):     2.1019

!    total energy              =  -16491.05192435 Ry
     Harris-Foulkes estimate   =  -16491.05192436 Ry
     estimated scf accuracy    <          6.4E-09 Ry

     total all-electron energy =   -677247.721189 Ry

     The total energy is the sum of the following terms:

     one-electron contribution =    -862.02928266 Ry
     hartree contribution      =     614.60144965 Ry
     xc contribution           =    -755.63036648 Ry
     ewald contribution        =   -1133.16234267 Ry
     DFT-D3 Dispersion         =      -0.60637415 Ry
     one-center paw contrib.   =  -14354.22500804 Ry

     convergence has been achieved in   8 iterations

     Forces acting on atoms (cartesian axes, Ry/au):

     atom    1 type  1   force =    -0.00070524   -0.00173233    0.00069674
     atom    2 type  1   force =    -0.00194718   -0.00114191    0.00036495
     atom    3 type  1   force =    -0.00011522   -0.00113031    0.00010083
     atom    4 type  1   force =    -0.00102095   -0.00021454    0.00084901
     atom    5 type  1   force =    -0.00084829   -0.00086371    0.00099053
     atom    6 type  1   force =    -0.00037112   -0.00115591   -0.00007395
     atom    7 type  1   force =    -0.00069665   -0.00042319    0.00006091
     atom    8 type  1   force =     0.00033324   -0.00218017    0.00095731
     atom    9 type  2   force =    -0.00038112    0.00133958   -0.00036928
     atom   10 type  2   force =     0.00243907    0.00093511   -0.00109944
     atom   11 type  2   force =     0.00087928   -0.00054666   -0.00018385
     atom   12 type  2   force =     0.00026216    0.00112925   -0.00087940
     atom   13 type  2   force =     0.00184226   -0.00071010   -0.00113951
     atom   14 type  2   force =     0.00004361    0.00062630    0.00050780
     atom   15 type  2   force =    -0.00141031    0.00115577   -0.00078565
     atom   16 type  2   force =     0.00086204    0.00073866   -0.00023705
     atom   17 type  2   force =     0.00004740    0.00073761    0.00020629
     atom   18 type  2   force =    -0.00223639    0.00173393   -0.00126274
     atom   19 type  2   force =     0.00113942    0.00067791   -0.00087828
     atom   20 type  2   force =     0.00087557   -0.00038534    0.00021809
     atom   21 type  2   force =    -0.00105820    0.00071589   -0.00075883
     atom   22 type  2   force =     0.00109116    0.00028632   -0.00012640
     atom   23 type  2   force =    -0.00032678    0.00016471    0.00022760
     atom   24 type  2   force =    -0.00045800    0.00113879   -0.00112385
     atom   25 type  2   force =     0.00153788    0.00051471   -0.00071803
     atom   26 type  2   force =     0.00085691    0.00004646    0.00006439
     atom   27 type  2   force =    -0.00098157    0.00067240   -0.00006934
     atom   28 type  2   force =     0.00209795   -0.00008724   -0.00052795
     atom   29 type  2   force =     0.00022033   -0.00061635    0.00070895
     atom   30 type  2   force =    -0.00142119    0.00125554   -0.00093426
     atom   31 type  2   force =     0.00259819    0.00090240   -0.00150065
     atom   32 type  2   force =     0.00002082    0.00004093    0.00021001
     atom   33 type  3   force =     0.00184246    0.00074613    0.00034392
     atom   34 type  3   force =    -0.00056856   -0.00097909    0.00044071
     atom   35 type  3   force =     0.00124127    0.00114748    0.00046989
     atom   36 type  3   force =    -0.00026937   -0.00035840    0.00064692
     atom   37 type  3   force =     0.00142987    0.00069501   -0.00046671
     atom   38 type  3   force =     0.00190438    0.00140718    0.00081514
     atom   39 type  3   force =     0.00101216    0.00065036   -0.00027084
     atom   40 type  3   force =    -0.00153487   -0.00152010   -0.00036789
     atom   41 type  4   force =    -0.00009440    0.00201111   -0.00090503
     atom   42 type  4   force =    -0.00107971   -0.00112223   -0.00104577
     atom   43 type  4   force =     0.00010767   -0.00125998   -0.00160765
     atom   44 type  4   force =     0.00281384    0.00252899   -0.00175231
     atom   45 type  4   force =    -0.00025540    0.00059988    0.00090984
     atom   46 type  4   force =    -0.00063234    0.00100443   -0.00170624
     atom   47 type  4   force =     0.00082902    0.00158312    0.00101214
     atom   48 type  4   force =     0.00285885    0.00337044    0.00058986
     atom   49 type  5   force =    -0.00097112    0.00009587    0.00222403
     atom   50 type  5   force =     0.00078630   -0.00134625    0.00063607
     atom   51 type  5   force =    -0.00033987   -0.00034859   -0.00078618
     atom   52 type  5   force =     0.00028968   -0.00192195   -0.00150929
     atom   53 type  5   force =    -0.00012891   -0.00104357    0.00112948
     atom   54 type  5   force =    -0.00229561    0.00144402   -0.00007478
     atom   55 type  5   force =     0.00081642    0.00024116   -0.00028683
     atom   56 type  5   force =    -0.00129602    0.00100873    0.00093125
     atom   57 type  5   force =     0.00110519   -0.00006105    0.00196677
     atom   58 type  5   force =    -0.00040442    0.00021797   -0.00036970
     atom   59 type  5   force =     0.00010014    0.00053405   -0.00048077
     atom   60 type  5   force =     0.00074675   -0.00074911    0.00023103
     atom   61 type  5   force =     0.00136731   -0.00240249   -0.00073465
     atom   62 type  5   force =    -0.00213751    0.00071202   -0.00037192
     atom   63 type  5   force =    -0.00008596   -0.00050533    0.00224815
     atom   64 type  5   force =    -0.00174118    0.00078244   -0.00227653
     atom   65 type  5   force =     0.00243534   -0.00088499   -0.00141422
     atom   66 type  5   force =    -0.00025301    0.00045465    0.00337824
     atom   67 type  5   force =     0.00107887    0.00045879    0.00484855
     atom   68 type  5   force =     0.00166760   -0.00283963   -0.00182228
     atom   69 type  5   force =    -0.00269445    0.00235453    0.00033138
     atom   70 type  5   force =    -0.00202751   -0.00014395   -0.00046375
     atom   71 type  5   force =    -0.00130775    0.00008023   -0.00103877
     atom   72 type  5   force =     0.00040789   -0.00257983    0.00013203
     atom   73 type  5   force =     0.00007895   -0.00073225    0.00015697
     atom   74 type  5   force =    -0.00014030   -0.00023032   -0.00019030
     atom   75 type  5   force =    -0.00059240    0.00005761    0.00116018
     atom   76 type  5   force =    -0.00111048   -0.00043476   -0.00177002
     atom   77 type  5   force =     0.00146023   -0.00099429    0.00028439
     atom   78 type  5   force =    -0.00121378    0.00019840    0.00154503
     atom   79 type  5   force =    -0.00096107    0.00137201    0.00107014
     atom   80 type  5   force =    -0.00085583   -0.00111933    0.00203989
     atom   81 type  5   force =    -0.00012645   -0.00094567   -0.00122852
     atom   82 type  5   force =     0.00048993   -0.00239686   -0.00288573
     atom   83 type  5   force =     0.00116656   -0.00005114    0.00286495
     atom   84 type  5   force =    -0.00212497    0.00087972   -0.00131287
     atom   85 type  5   force =    -0.00046567    0.00174706    0.00065197
     atom   86 type  5   force =     0.00030041   -0.00205695    0.00122715
     atom   87 type  5   force =    -0.00138378    0.00077142   -0.00131505
     atom   88 type  5   force =    -0.00082139   -0.00247864   -0.00037087
     atom   89 type  5   force =     0.00029876    0.00082200    0.00161885
     atom   90 type  5   force =    -0.00090678   -0.00026339   -0.00117876
     atom   91 type  5   force =     0.00103155    0.00046855    0.00379266
     atom   92 type  5   force =     0.00246791   -0.00254137   -0.00167958
     atom   93 type  5   force =    -0.00241805    0.00321274   -0.00138541
     atom   94 type  5   force =    -0.00082364   -0.00075078    0.00221156
     atom   95 type  5   force =    -0.00243698    0.00092772   -0.00136180
     atom   96 type  5   force =     0.00119511   -0.00314810   -0.00097306

     Total force =     0.022081     Total SCF correction =     0.000217


     Computing stress (Cartesian axis) and pressure

          total   stress  (Ry/bohr**3)                   (kbar)     P=   -0.10
  -0.00000213   0.00001620   0.00000065         -0.31      2.38      0.10
   0.00001620   0.00000511   0.00000005          2.38      0.75      0.01
   0.00000065   0.00000005  -0.00000493          0.10      0.01     -0.73


     number of scf cycles    =  15
     number of bfgs steps    =  14

     enthalpy old            =  -16491.0513928104 Ry
     enthalpy new            =  -16491.0519243490 Ry

     CASE: enthalpy_new < enthalpy_old

     new trust radius        =       0.0210475438 bohr
     new conv_thr            =       0.0000000053 Ry

     new unit-cell volume =  13787.31418 a.u.^3 (  2043.06915 Ang^3 )
     density =      4.03609 g/cm^3

CELL_PARAMETERS (alat= 24.15259000)
   0.998938974   0.000000000   0.000000000
   0.000000000   0.995755684   0.000000000
   0.000000000   0.000000000   0.983777290

ATOMIC_POSITIONS (crystal)
Pb       0.006325869   0.008069361  -0.007135229
Pb       0.007598583   0.005770253   0.493185938
Pb       0.006560573   0.508542584  -0.006880384
Pb       0.006694549   0.506886657   0.493504891
Pb       0.507729012   0.005833763  -0.006353927
Pb       0.508663377   0.007315484   0.493793550
Pb       0.507741829   0.506068830  -0.007446039
Pb       0.507593833   0.507994076   0.492888987
I        0.258759472   0.025883499  -0.007118629
I        0.025303867   0.259250842  -0.007348467
I       -0.002176458   0.005589007   0.243034402
I        0.258904162   0.021564536   0.493775318
I        0.031012069   0.258410320   0.494675264
I       -0.003478364   0.005547493   0.743062992
I        0.258805732   0.530774754  -0.003024492
I        0.022597953   0.759594939  -0.011497063
I        0.003777930   0.499797248   0.243122635
I        0.259088648   0.533184763   0.496076197
I        0.021111816   0.758328790   0.494646037
I       -0.002397266   0.504702410   0.743318736
I        0.758353666   0.025690987  -0.004596303
I        0.528672495   0.257591074  -0.009960229
I        0.501729680   0.001900639   0.243708268
I        0.758826068   0.027793943   0.492225127
I        0.523874161   0.257921620   0.493347245
I        0.497811549   0.003606967   0.743651840
I        0.758689827   0.525448532  -0.009139571
I        0.526767022   0.757472228  -0.005951792
I        0.499732852   0.504027775   0.242804892
I        0.759187989   0.520183983   0.491101950
I        0.530354052   0.757877203   0.495418640
I        0.498469907   0.503453090   0.743022925
C        0.284668481   0.285382629   0.250806823
C        0.283626953   0.286293073   0.749791837
C        0.286296238   0.783456924   0.248788553
C        0.285544765   0.784003828   0.752564064
C        0.785645812   0.285248131   0.249182574
C        0.783983638   0.286038020   0.751449436
C        0.785982315   0.783722297   0.250019225
C        0.782414891   0.786430332   0.749735355
N        0.202477767   0.200802465   0.259356407
N        0.203179558   0.199749480   0.757270254
N        0.205139747   0.699026281   0.257181797
N        0.200253760   0.701674106   0.757360722
N        0.702573715   0.201332001   0.255775482
N        0.702132198   0.201456984   0.757456480
N        0.700308503   0.702442277   0.256506446
N        0.700264251   0.700788213   0.758334357
H        0.173723466   0.179042097   0.185644236
H        0.139465584   0.224970668   0.305823665
H        0.231370697   0.134151449   0.296755186
H        0.308343209   0.294370376   0.167802091
H        0.352242141   0.263872577   0.299520230
H        0.252292349   0.359369352   0.279980180
H        0.181514721   0.170975976   0.683608560
H        0.135528153   0.224458481   0.795252212
H        0.229820618   0.136589135   0.801955394
H        0.296335026   0.305531920   0.666049787
H        0.356684658   0.258875998   0.785819600
H        0.254480290   0.355278086   0.792551891
H        0.201209298   0.654231760   0.188480448
H        0.131286410   0.729129382   0.270718866
H        0.220763831   0.648251748   0.320447362
H        0.282079012   0.819502396   0.169996746
H        0.363370962   0.748242173   0.261418703
H        0.271287575   0.842744991   0.309767019
H        0.179778840   0.674513764   0.682381841
H        0.133297331   0.730661828   0.794255318
H        0.223848926   0.637266146   0.802331089
H        0.294525269   0.810874638   0.670474964
H        0.359145586   0.749314652   0.780220655
H        0.263949996   0.850339904   0.803641232
H        0.677853849   0.176904404   0.181479773
H        0.637332099   0.226877874   0.297553197
H        0.729071178   0.135625300   0.296661718
H        0.797177334   0.307648166   0.166167040
H        0.858711859   0.254568130   0.281965902
H        0.760792528   0.353607286   0.295318429
H        0.665741376   0.189172728   0.684982420
H        0.644449234   0.220259483   0.812887264
H        0.733392959   0.130600647   0.782326886
H        0.813476575   0.291757952   0.670156625
H        0.848146156   0.266115909   0.805210471
H        0.749544176   0.360861351   0.775874394
H        0.665661575   0.688607656   0.183409721
H        0.641602733   0.725631654   0.309002424
H        0.727897547   0.631317206   0.285313466
H        0.810665034   0.792763313   0.167249086
H        0.852189639   0.757668052   0.298485197
H        0.756494935   0.858607268   0.280565454
H        0.675038257   0.675115525   0.684437849
H        0.634929044   0.726630424   0.800342777
H        0.728366259   0.636158486   0.800442899
H        0.792585205   0.807346128   0.665850202
H        0.856343824   0.757014642   0.782626646
H        0.756099634   0.855242222   0.794982369



     Writing output data file MAPbI_vcrelax_PAW4.save/
     NEW-OLD atomic charge density approx. for the potential
     extrapolated charge  399.94483, renormalised to  400.00000
