
     Program PWSCF v.6.4 starts on 20Feb2020 at 17:59:55 

     This program is part of the open-source Quantum ESPRESSO suite
     for quantum simulation of materials; please cite
         "P. Giannozzi et al., J. Phys.:Condens. Matter 21 395502 (2009);
         "P. Giannozzi et al., J. Phys.:Condens. Matter 29 465901 (2017);
          URL http://www.quantum-espresso.org", 
     in publications or presentations arising from this work. More details at
     http://www.quantum-espresso.org/quote

     Parallel version (MPI), running on    32 processors

     MPI processes distributed on     1 nodes
     K-points division:     npool     =       4
     R & G space division:  proc/nbgrp/npool/nimage =       8
     Waiting for input...
     Reading input from standard input
     Message from routine read_cards :
     DEPRECATED: no units specified in CELL_PARAMETERS card

     Current dimensions of program PWSCF are:
     Max number of different atomic species (ntypx) = 10
     Max number of k-points (npk) =  40000
     Max angular momentum in pseudopotentials (lmaxx) =  3
               file Pb.pbe-dn-kjpaw_psl.1.0.0.UPF: wavefunction(s)  6S 6P 5D renormalized
               file I.pbe-n-kjpaw_psl.1.0.0.UPF: wavefunction(s)  5S renormalized
               file C.pbe-n-kjpaw_psl.1.0.0.UPF: wavefunction(s)  2S 2P renormalized
               file N.pbe-n-kjpaw_psl.1.0.0.UPF: wavefunction(s)  2S renormalized
               file H.pbe-kjpaw_psl.1.0.0.UPF: wavefunction(s)  1S renormalized

     --------------------------------------------
     Parameters for DFT-D3 Dispersion Correction:
     --------------------------------------------
       Reference C6 values for interpolation: 

         atom   Coordination number   C6
         H          0.912             6.05
         H          0.000            15.18
         C          0.000            98.23
         C          0.987            86.49
         C          1.998            58.72
         C          2.999            51.56
         C          3.984            36.41
         N          0.000            50.54
         N          0.994            44.25
         N          2.014            39.35
         N          2.990            31.16
         I          0.000           703.93
         I          0.997           717.00
         Pb         0.000          1477.63
         Pb         0.938          1266.00
         Pb         1.936          1088.91
         Pb         2.908          1048.37
         Pb         3.910           910.57

       Values used:

         atom   Coordination number  R0_AB[au]  C6      C8
         Pb         4.789            4.041    910.57 144158.44
         Pb         4.793            4.041    910.57 144158.43
         Pb         4.827            4.041    910.57 144158.36
         Pb         4.852            4.041    910.57 144158.31
         Pb         4.836            4.041    910.57 144158.34
         Pb         4.840            4.041    910.57 144158.33
         Pb         4.884            4.041    910.57 144158.27
         Pb         4.902            4.041    910.57 144158.25
         I          1.968            3.532    717.00  65856.00
         I          1.921            3.532    717.00  65855.99
         I          1.901            3.532    717.00  65855.99
         I          1.972            3.532    717.00  65856.00
         I          1.943            3.532    717.00  65855.99
         I          1.968            3.532    717.00  65856.00
         I          1.994            3.532    717.00  65856.00
         I          1.922            3.532    717.00  65855.99
         I          1.938            3.532    717.00  65855.99
         I          1.992            3.532    717.00  65856.00
         I          1.935            3.532    717.00  65855.99
         I          2.014            3.532    717.00  65856.00
         I          1.975            3.532    717.00  65856.00
         I          1.971            3.532    717.00  65856.00
         I          1.919            3.532    717.00  65855.99
         I          1.996            3.532    717.00  65856.00
         I          1.983            3.532    717.00  65856.00
         I          1.977            3.532    717.00  65856.00
         I          1.999            3.532    717.00  65856.00
         I          2.010            3.532    717.00  65856.00
         I          1.963            3.532    717.00  65856.00
         I          2.001            3.532    717.00  65856.00
         I          2.022            3.532    717.00  65856.00
         I          2.064            3.532    717.00  65856.00
         C          4.036            2.750     36.59   1058.33
         C          4.038            2.750     36.59   1058.26
         C          4.034            2.750     36.60   1058.41
         C          4.033            2.750     36.60   1058.45
         C          4.031            2.750     36.60   1058.56
         C          4.042            2.750     36.58   1058.09
         C          4.035            2.750     36.59   1058.37
         C          4.044            2.750     36.58   1058.03
         N          4.063            2.478     31.16    687.49
         N          4.058            2.478     31.16    687.49
         N          4.058            2.478     31.16    687.49
         N          4.059            2.478     31.16    687.49
         N          4.059            2.478     31.16    687.49
         N          4.058            2.478     31.16    687.49
         N          4.058            2.478     31.16    687.49
         N          4.056            2.478     31.16    687.49
         H          1.105            2.062      6.11     73.90
         H          1.104            2.062      6.11     73.91
         H          1.025            2.062      6.16     74.47
         H          1.008            2.062      6.17     74.63
         H          1.008            2.062      6.17     74.63
         H          1.005            2.062      6.18     74.66
         H          1.098            2.062      6.12     73.94
         H          1.022            2.062      6.16     74.50
         H          1.083            2.062      6.12     74.02
         H          1.008            2.062      6.17     74.64
         H          1.011            2.062      6.17     74.61
         H          1.008            2.062      6.17     74.64
         H          1.117            2.062      6.11     73.84
         H          1.021            2.062      6.16     74.51
         H          1.096            2.062      6.12     73.95
         H          1.009            2.062      6.17     74.62
         H          1.007            2.062      6.18     74.65
         H          1.007            2.062      6.17     74.64
         H          1.037            2.062      6.15     74.36
         H          1.033            2.062      6.15     74.39
         H          1.039            2.062      6.15     74.34
         H          1.015            2.062      6.17     74.56
         H          1.015            2.062      6.17     74.56
         H          1.016            2.062      6.17     74.55
         H          1.114            2.062      6.11     73.85
         H          1.020            2.062      6.16     74.51
         H          1.102            2.062      6.11     73.91
         H          1.008            2.062      6.17     74.63
         H          1.006            2.062      6.18     74.65
         H          1.007            2.062      6.18     74.65
         H          1.092            2.062      6.12     73.97
         H          1.090            2.062      6.12     73.98
         H          1.023            2.062      6.16     74.49
         H          1.009            2.062      6.17     74.62
         H          1.008            2.062      6.17     74.63
         H          1.011            2.062      6.17     74.61
         H          1.122            2.062      6.11     73.81
         H          1.103            2.062      6.11     73.91
         H          1.018            2.062      6.17     74.53
         H          1.008            2.062      6.17     74.63
         H          1.007            2.062      6.17     74.64
         H          1.008            2.062      6.17     74.64
         H          1.078            2.062      6.13     74.06
         H          1.022            2.062      6.16     74.49
         H          1.072            2.062      6.13     74.10
         H          1.008            2.062      6.17     74.63
         H          1.015            2.062      6.17     74.56
         H          1.009            2.062      6.17     74.63

         Molecular C6 ( Ry / a.u.^6 ) =   1196369.15


     Subspace diagonalization in iterative solution of the eigenvalue problem:
     a serial algorithm will be used


     Parallelization info
     --------------------
     sticks:   dense  smooth     PW     G-vecs:    dense   smooth      PW
     Min        2768    2768    715               302274   302274   39603
     Max        2770    2770    716               302275   302275   39606
     Sum       22151   22151   5721              2418197  2418197  316827



     bravais-lattice index     =            0
     lattice parameter (alat)  =      24.1526  a.u.
     unit-cell volume          =   13618.1671 (a.u.)^3
     number of atoms/cell      =           96
     number of atomic types    =            5
     number of electrons       =       400.00
     number of Kohn-Sham states=          200
     kinetic-energy cutoff     =     120.0000  Ry
     charge density cutoff     =     480.0000  Ry
     convergence threshold     =      1.0E-07
     mixing beta               =       0.7000
     number of iterations used =            8  plain     mixing
     Exchange-correlation      = SLA PW PBX PBC ( 1  4  3  4 0 0)
     nstep                     =          150


     celldm(1)=  24.152590  celldm(2)=   0.000000  celldm(3)=   0.000000
     celldm(4)=   0.000000  celldm(5)=   0.000000  celldm(6)=   0.000000

     crystal axes: (cart. coord. in units of alat)
               a(1) = (   0.998712   0.000000   0.000000 )  
               a(2) = (   0.000000   0.996489   0.000000 )  
               a(3) = (   0.000000   0.000000   0.971213 )  

     reciprocal axes: (cart. coord. in units 2 pi/alat)
               b(1) = (  1.001289  0.000000  0.000000 )  
               b(2) = (  0.000000  1.003523  0.000000 )  
               b(3) = (  0.000000  0.000000  1.029640 )  


     PseudoPot. # 1 for Pb read from file:
     ../Pseudopotential/Pb.pbe-dn-kjpaw_psl.1.0.0.UPF
     MD5 check sum: 684fc8fbce61a260853528575e4d9ab7
     Pseudo is Projector augmented-wave + core cor, Zval = 14.0
     Generated using "atomic" code by A. Dal Corso v.6.3
     Shape of augmentation charge: PSQ
     Using radial grid of 1281 points,  6 beta functions with: 
                l(1) =   0
                l(2) =   0
                l(3) =   1
                l(4) =   1
                l(5) =   2
                l(6) =   2
     Q(r) pseudized with 0 coefficients 


     PseudoPot. # 2 for I  read from file:
     ../Pseudopotential/I.pbe-n-kjpaw_psl.1.0.0.UPF
     MD5 check sum: cd3d296c3308a581e1559a0c8a554cb5
     Pseudo is Projector augmented-wave + core cor, Zval =  7.0
     Generated using "atomic" code by A. Dal Corso v.6.3
     Shape of augmentation charge: PSQ
     Using radial grid of 1247 points,  6 beta functions with: 
                l(1) =   0
                l(2) =   0
                l(3) =   1
                l(4) =   1
                l(5) =   2
                l(6) =   2
     Q(r) pseudized with 0 coefficients 


     PseudoPot. # 3 for C  read from file:
     ../Pseudopotential/C.pbe-n-kjpaw_psl.1.0.0.UPF
     MD5 check sum: 5f16ad9a65e90284d1d834d4ab3b0f7d
     Pseudo is Projector augmented-wave + core cor, Zval =  4.0
     Generated using "atomic" code by A. Dal Corso v.6.3
     Shape of augmentation charge: PSQ
     Using radial grid of 1073 points,  4 beta functions with: 
                l(1) =   0
                l(2) =   0
                l(3) =   1
                l(4) =   1
     Q(r) pseudized with 0 coefficients 


     PseudoPot. # 4 for N  read from file:
     ../Pseudopotential/N.pbe-n-kjpaw_psl.1.0.0.UPF
     MD5 check sum: 14c48229446f9f2d411169a3abcbc3fa
     Pseudo is Projector augmented-wave + core cor, Zval =  5.0
     Generated using "atomic" code by A. Dal Corso v.6.3
     Shape of augmentation charge: PSQ
     Using radial grid of 1085 points,  4 beta functions with: 
                l(1) =   0
                l(2) =   0
                l(3) =   1
                l(4) =   1
     Q(r) pseudized with 0 coefficients 


     PseudoPot. # 5 for H  read from file:
     ../Pseudopotential/H.pbe-kjpaw_psl.1.0.0.UPF
     MD5 check sum: d81a744832360e4a8af0b0b5b123bc2a
     Pseudo is Projector augmented-wave, Zval =  1.0
     Generated using "atomic" code by A. Dal Corso v.6.3MaX
     Shape of augmentation charge: PSQ
     Using radial grid of  929 points,  2 beta functions with: 
                l(1) =   0
                l(2) =   0
     Q(r) pseudized with 0 coefficients 


     atomic species   valence    mass     pseudopotential
        Pb            14.00   207.97600     Pb( 1.00)
        I              7.00   126.90400     I ( 1.00)
        C              4.00    12.00000     C ( 1.00)
        N              5.00    14.00300     N ( 1.00)
        H              1.00     1.00700     H ( 1.00)

     No symmetry found



   Cartesian axes

     site n.     atom                  positions (alat units)
         1           Pb  tau(   1) = (   0.0040486   0.0045380   0.0018955  )
         2           Pb  tau(   2) = (   0.0031990   0.0064418   0.4896387  )
         3           Pb  tau(   3) = (   0.0044305   0.5066920   0.0001377  )
         4           Pb  tau(   4) = (   0.0045307   0.5071403   0.4879130  )
         5           Pb  tau(   5) = (   0.5047942   0.0056391   0.0027062  )
         6           Pb  tau(   6) = (   0.5044952   0.0057784   0.4898861  )
         7           Pb  tau(   7) = (   0.5052002   0.5040402   0.0001824  )
         8           Pb  tau(   8) = (   0.5069228   0.5061042   0.4864208  )
         9           I   tau(   9) = (   0.2539178   0.0082385  -0.0307221  )
        10           I   tau(  10) = (   0.0406025   0.2574421   0.0275130  )
        11           I   tau(  11) = (   0.0423085  -0.0402198   0.2453066  )
        12           I   tau(  12) = (   0.2550690   0.0185803   0.5197362  )
        13           I   tau(  13) = (   0.0292267   0.2597640   0.4573169  )
        14           I   tau(  14) = (  -0.0454258   0.0478652   0.7311018  )
        15           I   tau(  15) = (   0.2550397   0.5421652   0.0185989  )
        16           I   tau(  16) = (   0.0040430   0.7559745  -0.0442086  )
        17           I   tau(  17) = (  -0.0339214   0.5413569   0.2443358  )
        18           I   tau(  18) = (   0.2557134   0.5369794   0.4735045  )
        19           I   tau(  19) = (   0.0151453   0.7573561   0.5249998  )
        20           I   tau(  20) = (   0.0355610   0.4568885   0.7294233  )
        21           I   tau(  21) = (   0.7536934   0.0345082   0.0341181  )
        22           I   tau(  22) = (   0.5065877   0.2552927  -0.0364619  )
        23           I   tau(  23) = (   0.4550504   0.0436209   0.2446659  )
        24           I   tau(  24) = (   0.7535753   0.0277781   0.4585497  )
        25           I   tau(  25) = (   0.5154547   0.2572115   0.5165352  )
        26           I   tau(  26) = (   0.5454739  -0.0392311   0.7318359  )
        27           I   tau(  27) = (   0.7542858   0.5072586  -0.0258651  )
        28           I   tau(  28) = (   0.5350819   0.7548119   0.0291813  )
        29           I   tau(  29) = (   0.5319456   0.4625534   0.2427990  )
        30           I   tau(  30) = (   0.7530137   0.5183082   0.5177307  )
        31           I   tau(  31) = (   0.5266543   0.7563917   0.4581030  )
        32           I   tau(  32) = (   0.4708499   0.5353516   0.7299928  )
        33           C   tau(  33) = (   0.2858367   0.2863496   0.2401312  )
        34           C   tau(  34) = (   0.2795493   0.2845847   0.7265686  )
        35           C   tau(  35) = (   0.2845418   0.7850760   0.2414256  )
        36           C   tau(  36) = (   0.2838881   0.7774049   0.7244397  )
        37           C   tau(  37) = (   0.7825266   0.2874306   0.2404752  )
        38           C   tau(  38) = (   0.7829021   0.2859817   0.7250733  )
        39           C   tau(  39) = (   0.7886214   0.7819475   0.2397715  )
        40           C   tau(  40) = (   0.7838806   0.7833163   0.7238892  )
        41           N   tau(  41) = (   0.2043267   0.2032158   0.2457657  )
        42           N   tau(  42) = (   0.2051540   0.1950463   0.7329502  )
        43           N   tau(  43) = (   0.2089544   0.6959041   0.2457754  )
        44           N   tau(  44) = (   0.2102247   0.6867886   0.7325963  )
        45           N   tau(  45) = (   0.7008294   0.2044514   0.2473596  )
        46           N   tau(  46) = (   0.6946405   0.2097471   0.7290047  )
        47           N   tau(  47) = (   0.7013963   0.7045158   0.2448271  )
        48           N   tau(  48) = (   0.7064506   0.6961148   0.7357615  )
        49           H   tau(  49) = (   0.1580785   0.2035542   0.1784211  )
        50           H   tau(  50) = (   0.1535854   0.2155868   0.3085732  )
        51           H   tau(  51) = (   0.2369048   0.1297579   0.2541789  )
        52           H   tau(  52) = (   0.3341160   0.2727154   0.1708483  )
        53           H   tau(  53) = (   0.3340769   0.2820760   0.3105822  )
        54           H   tau(  54) = (   0.2470388   0.3624277   0.2345260  )
        55           H   tau(  55) = (   0.2138670   0.1456500   0.6684478  )
        56           H   tau(  56) = (   0.1281648   0.2194471   0.7349015  )
        57           H   tau(  57) = (   0.2182065   0.1492661   0.7993161  )
        58           H   tau(  58) = (   0.2628102   0.3291701   0.6555702  )
        59           H   tau(  59) = (   0.3593150   0.2540533   0.7238919  )
        60           H   tau(  60) = (   0.2696561   0.3339214   0.7956341  )
        61           H   tau(  61) = (   0.2186507   0.6454599   0.1819255  )
        62           H   tau(  62) = (   0.1322536   0.7215307   0.2451409  )
        63           H   tau(  63) = (   0.2192562   0.6519768   0.3137987  )
        64           H   tau(  64) = (   0.2639610   0.8331556   0.1736188  )
        65           H   tau(  65) = (   0.3638930   0.7536151   0.2332476  )
        66           H   tau(  66) = (   0.2778500   0.8306295   0.3138183  )
        67           H   tau(  67) = (   0.2077850   0.6449868   0.6631412  )
        68           H   tau(  68) = (   0.1347791   0.7114356   0.7492037  )
        69           H   tau(  69) = (   0.2316106   0.6356031   0.7920527  )
        70           H   tau(  70) = (   0.2625740   0.8240685   0.6556894  )
        71           H   tau(  71) = (   0.3631507   0.7462333   0.7163689  )
        72           H   tau(  72) = (   0.2773267   0.8247055   0.7956138  )
        73           H   tau(  73) = (   0.7043873   0.1552363   0.1821414  )
        74           H   tau(  74) = (   0.6263752   0.2352680   0.2513943  )
        75           H   tau(  75) = (   0.7116455   0.1566966   0.3127078  )
        76           H   tau(  76) = (   0.7689252   0.3331694   0.1695467  )
        77           H   tau(  77) = (   0.8595190   0.2502697   0.2371390  )
        78           H   tau(  78) = (   0.7770114   0.3374771   0.3096329  )
        79           H   tau(  79) = (   0.6470572   0.2167287   0.6628708  )
        80           H   tau(  80) = (   0.6461581   0.2219906   0.7936568  )
        81           H   tau(  81) = (   0.7208703   0.1335580   0.7325321  )
        82           H   tau(  82) = (   0.8305165   0.2680599   0.6562541  )
        83           H   tau(  83) = (   0.8300442   0.2785263   0.7961340  )
        84           H   tau(  84) = (   0.7503260   0.3647561   0.7189670  )
        85           H   tau(  85) = (   0.6551477   0.7096420   0.1774446  )
        86           H   tau(  86) = (   0.6518350   0.7176664   0.3086198  )
        87           H   tau(  87) = (   0.7290819   0.6288816   0.2503699  )
        88           H   tau(  88) = (   0.8340053   0.7661655   0.1689723  )
        89           H   tau(  89) = (   0.8385595   0.7742113   0.3088586  )
        90           H   tau(  90) = (   0.7546226   0.8603463   0.2362813  )
        91           H   tau(  91) = (   0.7102310   0.6454642   0.6717259  )
        92           H   tau(  92) = (   0.6306906   0.7242133   0.7410833  )
        93           H   tau(  93) = (   0.7211460   0.6510866   0.8025148  )
        94           H   tau(  94) = (   0.7622848   0.8293682   0.6548083  )
        95           H   tau(  95) = (   0.8618440   0.7492231   0.7136075  )
        96           H   tau(  96) = (   0.7816831   0.8320338   0.7943302  )

     number of k points=    32
                       cart. coord. in units 2pi/alat
        k(    1) = (   0.1251611   0.1254404   0.1287050), wk =   0.0625000
        k(    2) = (   0.1251611   0.1254404   0.3861151), wk =   0.0625000
        k(    3) = (   0.1251611   0.3763212   0.1287050), wk =   0.0625000
        k(    4) = (   0.1251611   0.3763212   0.3861151), wk =   0.0625000
        k(    5) = (   0.3754834   0.1254404   0.1287050), wk =   0.0625000
        k(    6) = (   0.3754834   0.1254404   0.3861151), wk =   0.0625000
        k(    7) = (   0.3754834   0.3763212   0.1287050), wk =   0.0625000
        k(    8) = (   0.3754834   0.3763212   0.3861151), wk =   0.0625000
        k(    9) = (  -0.1251611  -0.1254404   0.1287050), wk =   0.0625000
        k(   10) = (  -0.1251611   0.1254404  -0.1287050), wk =   0.0625000
        k(   11) = (   0.1251611  -0.1254404  -0.1287050), wk =   0.0625000
        k(   12) = (  -0.1251611  -0.1254404   0.3861151), wk =   0.0625000
        k(   13) = (  -0.1251611   0.1254404  -0.3861151), wk =   0.0625000
        k(   14) = (   0.1251611  -0.1254404  -0.3861151), wk =   0.0625000
        k(   15) = (  -0.1251611  -0.3763212   0.1287050), wk =   0.0625000
        k(   16) = (  -0.1251611   0.3763212  -0.1287050), wk =   0.0625000
        k(   17) = (   0.1251611  -0.3763212  -0.1287050), wk =   0.0625000
        k(   18) = (  -0.1251611  -0.3763212   0.3861151), wk =   0.0625000
        k(   19) = (  -0.1251611   0.3763212  -0.3861151), wk =   0.0625000
        k(   20) = (   0.1251611  -0.3763212  -0.3861151), wk =   0.0625000
        k(   21) = (  -0.3754834  -0.1254404   0.1287050), wk =   0.0625000
        k(   22) = (  -0.3754834   0.1254404  -0.1287050), wk =   0.0625000
        k(   23) = (   0.3754834  -0.1254404  -0.1287050), wk =   0.0625000
        k(   24) = (  -0.3754834  -0.1254404   0.3861151), wk =   0.0625000
        k(   25) = (  -0.3754834   0.1254404  -0.3861151), wk =   0.0625000
        k(   26) = (   0.3754834  -0.1254404  -0.3861151), wk =   0.0625000
        k(   27) = (  -0.3754834  -0.3763212   0.1287050), wk =   0.0625000
        k(   28) = (  -0.3754834   0.3763212  -0.1287050), wk =   0.0625000
        k(   29) = (   0.3754834  -0.3763212  -0.1287050), wk =   0.0625000
        k(   30) = (  -0.3754834  -0.3763212   0.3861151), wk =   0.0625000
        k(   31) = (  -0.3754834   0.3763212  -0.3861151), wk =   0.0625000
        k(   32) = (   0.3754834  -0.3763212  -0.3861151), wk =   0.0625000

     Dense  grid:  2418197 G-vectors     FFT dimensions: ( 180, 180, 180)

     Estimated max dynamical RAM per process >       3.12 GB

     Estimated total dynamical RAM >      99.87 GB

     Initial potential from superposition of free atoms

     starting charge  399.97850, renormalised to  400.00000
     Starting wfcs are  280 randomized atomic wfcs
     Checking if some PAW data can be deallocated... 

     total cpu time spent up to now is     1692.5 secs

     Self-consistent Calculation

     iteration #  1     ecut=   120.00 Ry     beta= 0.70
     Davidson diagonalization with overlap
     ethr =  1.00E-02,  avg # of iterations =  2.0

     total cpu time spent up to now is     4613.1 secs

     total energy              =  -16489.34989697 Ry
     Harris-Foulkes estimate   =  -16492.76145383 Ry
     estimated scf accuracy    <       5.72557041 Ry

     iteration #  2     ecut=   120.00 Ry     beta= 0.70
     Davidson diagonalization with overlap
     ethr =  1.43E-03,  avg # of iterations =  3.0

     total cpu time spent up to now is     8780.9 secs

     total energy              =  -16490.59327001 Ry
     Harris-Foulkes estimate   =  -16491.82953370 Ry
     estimated scf accuracy    <       2.19760865 Ry

     iteration #  3     ecut=   120.00 Ry     beta= 0.70
     Davidson diagonalization with overlap
     ethr =  5.49E-04,  avg # of iterations =  3.0

     total cpu time spent up to now is    12070.3 secs

     total energy              =  -16491.11093217 Ry
     Harris-Foulkes estimate   =  -16491.15538253 Ry
     estimated scf accuracy    <       0.10236865 Ry

     iteration #  4     ecut=   120.00 Ry     beta= 0.70
     Davidson diagonalization with overlap
     ethr =  2.56E-05,  avg # of iterations =  3.0

     total cpu time spent up to now is    16028.7 secs

     total energy              =  -16491.13659728 Ry
     Harris-Foulkes estimate   =  -16491.14778498 Ry
     estimated scf accuracy    <       0.02042083 Ry

     iteration #  5     ecut=   120.00 Ry     beta= 0.70
     Davidson diagonalization with overlap
     ethr =  5.11E-06,  avg # of iterations =  2.0

     total cpu time spent up to now is    19292.3 secs

     total energy              =  -16491.14077238 Ry
     Harris-Foulkes estimate   =  -16491.14193184 Ry
     estimated scf accuracy    <       0.00211123 Ry

     iteration #  6     ecut=   120.00 Ry     beta= 0.70
     Davidson diagonalization with overlap
     ethr =  5.28E-07,  avg # of iterations =  3.0

     total cpu time spent up to now is    23223.3 secs

     total energy              =  -16491.14136227 Ry
     Harris-Foulkes estimate   =  -16491.14181136 Ry
     estimated scf accuracy    <       0.00107410 Ry

     iteration #  7     ecut=   120.00 Ry     beta= 0.70
     Davidson diagonalization with overlap
     ethr =  2.69E-07,  avg # of iterations =  2.5

     total cpu time spent up to now is    26116.7 secs

     total energy              =  -16491.14158183 Ry
     Harris-Foulkes estimate   =  -16491.14159237 Ry
     estimated scf accuracy    <       0.00003338 Ry

     iteration #  8     ecut=   120.00 Ry     beta= 0.70
     Davidson diagonalization with overlap
     ethr =  8.35E-09,  avg # of iterations =  3.2

     total cpu time spent up to now is    30832.4 secs

     total energy              =  -16491.14159502 Ry
     Harris-Foulkes estimate   =  -16491.14160076 Ry
     estimated scf accuracy    <       0.00001268 Ry

     iteration #  9     ecut=   120.00 Ry     beta= 0.70
     Davidson diagonalization with overlap
     ethr =  3.17E-09,  avg # of iterations =  3.0

     total cpu time spent up to now is    33809.6 secs

     total energy              =  -16491.14159756 Ry
     Harris-Foulkes estimate   =  -16491.14159814 Ry
     estimated scf accuracy    <       0.00000125 Ry

     iteration # 10     ecut=   120.00 Ry     beta= 0.70
     Davidson diagonalization with overlap
     ethr =  3.14E-10,  avg # of iterations =  3.8

     total cpu time spent up to now is    37772.1 secs

     total energy              =  -16491.14159788 Ry
     Harris-Foulkes estimate   =  -16491.14159800 Ry
     estimated scf accuracy    <       0.00000027 Ry

     iteration # 11     ecut=   120.00 Ry     beta= 0.70
     Davidson diagonalization with overlap
     ethr =  6.65E-11,  avg # of iterations =  3.3

     total cpu time spent up to now is    41140.4 secs

     End of self-consistent calculation

          k = 0.1252 0.1254 0.1287 (302279 PWs)   bands (ev):

   -17.5688 -17.5335 -17.5266 -17.5054 -17.5050 -17.5006 -17.5005 -17.4821
   -14.3697 -14.3652 -14.3591 -14.3526 -14.3408 -14.3328 -14.3324 -14.3288
   -14.3253 -14.3247 -14.3243 -14.3220 -14.3211 -14.3185 -14.3170 -14.3125
   -14.3120 -14.3094 -14.3045 -14.2983 -14.2965 -14.2964 -14.2925 -14.2903
   -14.2899 -14.2893 -14.2873 -14.2866 -14.2843 -14.2816 -14.2814 -14.2773
   -14.2770 -14.2699 -14.2637 -14.2581 -14.2548 -14.2515 -14.2492 -14.2436
   -10.5793 -10.5694 -10.5545 -10.5480 -10.5314 -10.5298 -10.5095 -10.4820
    -9.7679  -9.6257  -9.5682  -9.5424  -9.4707  -9.4176  -9.3929  -9.3574
    -9.3508  -9.3254  -9.3174  -9.3064  -9.2796  -9.2576  -9.2434  -9.2188
    -9.2013  -9.1940  -9.1608  -9.1226  -9.1014  -9.0745  -9.0515  -8.9969
    -7.0313  -7.0173  -6.9971  -6.9950  -6.9798  -6.9727  -6.9676  -6.9555
    -6.9501  -6.9133  -6.8700  -6.8618  -6.8532  -6.8436  -6.8313  -6.8185
    -5.9662  -5.5325  -5.5196  -5.4948  -5.1124  -5.0821  -5.0683  -4.9321
    -4.9115  -4.9095  -4.8942  -4.8822  -4.8796  -4.8645  -4.8317  -4.6225
    -2.8956  -2.8510  -2.8482  -2.8446  -2.8364  -2.8267  -2.8231  -2.8096
    -2.8022  -2.7956  -2.7903  -2.7808  -2.7695  -2.7626  -2.7548  -2.7530
    -0.9830  -0.9416  -0.9144  -0.8911  -0.8322  -0.8203  -0.7784  -0.7674
    -0.7411  -0.6937  -0.6302  -0.5527   0.1399   0.2175   0.2276   0.2672
     0.3485   0.3560   0.3931   0.4319   0.4482   0.5173   0.5472   0.5643
     0.5727   0.6509   0.6696   0.7164   0.7418   0.7675   0.7859   0.8437
     0.8678   0.8774   0.9006   0.9150   0.9254   0.9556   0.9768   0.9852
     1.0087   1.0150   1.0426   1.0535   1.0663   1.1013   1.1188   1.1258
     1.1464   1.1642   1.1730   1.1878   1.1974   1.2016   1.2180   1.2415
     1.2519   1.2666   1.2943   1.3629   1.3931   1.4651   1.4672   1.5173
     1.5631   1.5839   1.5908   1.6070   1.6696   1.7599   1.7893   2.0171

          k = 0.1252 0.1254 0.3861 (302311 PWs)   bands (ev):

   -17.5688 -17.5335 -17.5266 -17.5054 -17.5050 -17.5006 -17.5006 -17.4821
   -14.3690 -14.3635 -14.3592 -14.3549 -14.3405 -14.3328 -14.3324 -14.3274
   -14.3251 -14.3247 -14.3229 -14.3224 -14.3211 -14.3185 -14.3170 -14.3145
   -14.3120 -14.3104 -14.3046 -14.2983 -14.2965 -14.2964 -14.2923 -14.2903
   -14.2898 -14.2893 -14.2866 -14.2854 -14.2843 -14.2816 -14.2814 -14.2795
   -14.2771 -14.2699 -14.2637 -14.2581 -14.2548 -14.2516 -14.2492 -14.2436
   -10.5789 -10.5685 -10.5536 -10.5494 -10.5313 -10.5300 -10.5101 -10.4823
    -9.7381  -9.6763  -9.5473  -9.5140  -9.4955  -9.4630  -9.3954  -9.3764
    -9.3409  -9.3318  -9.3070  -9.3047  -9.2641  -9.2526  -9.2251  -9.2044
    -9.1977  -9.1673  -9.1460  -9.1232  -9.1165  -9.0774  -9.0646  -9.0182
    -7.0291  -7.0172  -6.9971  -6.9929  -6.9746  -6.9735  -6.9688  -6.9575
    -6.9535  -6.9164  -6.8620  -6.8582  -6.8496  -6.8459  -6.8325  -6.8246
    -5.8404  -5.6456  -5.4135  -5.4021  -5.2282  -5.2161  -5.0234  -4.9420
    -4.9192  -4.9050  -4.8980  -4.8807  -4.8786  -4.8554  -4.8322  -4.7498
    -2.8946  -2.8487  -2.8455  -2.8392  -2.8335  -2.8266  -2.8197  -2.8089
    -2.8041  -2.7979  -2.7910  -2.7797  -2.7736  -2.7677  -2.7581  -2.7522
    -0.9149  -0.8793  -0.8703  -0.8138  -0.7892  -0.7459  -0.7339  -0.6812
    -0.5546  -0.4239  -0.4119  -0.2670   0.0000   0.0958   0.1117   0.2067
     0.2605   0.2838   0.3167   0.3457   0.3789   0.3902   0.4143   0.4602
     0.4767   0.5283   0.6748   0.6909   0.7043   0.7347   0.8055   0.8226
     0.8451   0.8591   0.8811   0.9076   0.9428   0.9573   0.9695   0.9908
     1.0190   1.0339   1.0417   1.0585   1.0725   1.0921   1.0971   1.1271
     1.1371   1.1584   1.1763   1.1864   1.2040   1.2249   1.2365   1.2492
     1.2822   1.2942   1.3331   1.3548   1.3757   1.3769   1.4275   1.4733
     1.5270   1.5503   1.5756   1.5885   1.6020   1.6119   1.7035   1.8106

          k = 0.1252 0.3763 0.1287 (302267 PWs)   bands (ev):

   -17.5688 -17.5335 -17.5266 -17.5054 -17.5050 -17.5006 -17.5005 -17.4821
   -14.3696 -14.3649 -14.3587 -14.3523 -14.3407 -14.3330 -14.3328 -14.3286
   -14.3256 -14.3248 -14.3244 -14.3219 -14.3210 -14.3185 -14.3170 -14.3125
   -14.3120 -14.3090 -14.3045 -14.2983 -14.2967 -14.2964 -14.2928 -14.2903
   -14.2899 -14.2893 -14.2876 -14.2865 -14.2843 -14.2816 -14.2814 -14.2775
   -14.2771 -14.2700 -14.2637 -14.2581 -14.2548 -14.2515 -14.2492 -14.2436
   -10.5792 -10.5673 -10.5553 -10.5479 -10.5316 -10.5293 -10.5108 -10.4831
    -9.7357  -9.6265  -9.6003  -9.5263  -9.5032  -9.4389  -9.4179  -9.3801
    -9.3553  -9.3302  -9.2973  -9.2869  -9.2695  -9.2425  -9.2275  -9.2119
    -9.1793  -9.1634  -9.1566  -9.1294  -9.1068  -9.0863  -9.0563  -9.0163
    -7.0313  -7.0172  -6.9968  -6.9954  -6.9795  -6.9730  -6.9666  -6.9563
    -6.9499  -6.9127  -6.8684  -6.8627  -6.8543  -6.8431  -6.8325  -6.8190
    -5.8538  -5.6582  -5.4220  -5.3886  -5.2400  -5.2094  -4.9936  -4.9410
    -4.9175  -4.9072  -4.8936  -4.8829  -4.8776  -4.8547  -4.8306  -4.7366
    -2.8917  -2.8509  -2.8443  -2.8390  -2.8336  -2.8262  -2.8200  -2.8137
    -2.8059  -2.8019  -2.7923  -2.7809  -2.7681  -2.7654  -2.7560  -2.7542
    -0.9759  -0.9320  -0.8710  -0.8455  -0.8135  -0.7738  -0.7258  -0.6006
    -0.5182  -0.4142  -0.3669  -0.2638   0.0361   0.1340   0.1756   0.2085
     0.2544   0.2831   0.2983   0.3084   0.3709   0.3958   0.4234   0.4757
     0.5098   0.5522   0.5789   0.6024   0.6670   0.7395   0.7694   0.7887
     0.8303   0.8620   0.8693   0.9080   0.9279   0.9450   0.9594   0.9771
     1.0049   1.0203   1.0330   1.0567   1.0727   1.0778   1.1286   1.1391
     1.1616   1.1733   1.1921   1.2037   1.2156   1.2278   1.2394   1.2652
     1.2782   1.2963   1.3308   1.3416   1.4038   1.4279   1.4545   1.4753
     1.5020   1.5310   1.5473   1.5528   1.5852   1.6128   1.7873   1.8395

          k = 0.1252 0.3763 0.3861 (302304 PWs)   bands (ev):

   -17.5688 -17.5335 -17.5266 -17.5054 -17.5050 -17.5006 -17.5005 -17.4821
   -14.3689 -14.3632 -14.3589 -14.3546 -14.3405 -14.3330 -14.3328 -14.3271
   -14.3254 -14.3248 -14.3227 -14.3225 -14.3211 -14.3185 -14.3170 -14.3145
   -14.3121 -14.3099 -14.3046 -14.2983 -14.2966 -14.2965 -14.2926 -14.2903
   -14.2899 -14.2893 -14.2866 -14.2856 -14.2843 -14.2816 -14.2814 -14.2797
   -14.2771 -14.2700 -14.2637 -14.2581 -14.2548 -14.2516 -14.2492 -14.2436
   -10.5788 -10.5667 -10.5546 -10.5488 -10.5311 -10.5297 -10.5114 -10.4833
    -9.7085  -9.6483  -9.5991  -9.5510  -9.4962  -9.4590  -9.4059  -9.3837
    -9.3733  -9.3490  -9.2881  -9.2768  -9.2587  -9.2288  -9.2108  -9.1850
    -9.1767  -9.1613  -9.1467  -9.1231  -9.1194  -9.0849  -9.0796  -9.0326
    -7.0294  -7.0170  -6.9963  -6.9937  -6.9752  -6.9736  -6.9675  -6.9591
    -6.9521  -6.9163  -6.8618  -6.8582  -6.8495  -6.8463  -6.8326  -6.8249
    -5.7304  -5.5434  -5.5341  -5.3567  -5.3056  -5.1400  -5.1245  -4.9981
    -4.9211  -4.9042  -4.8971  -4.8827  -4.8752  -4.8654  -4.8446  -4.8091
    -2.8911  -2.8530  -2.8456  -2.8385  -2.8355  -2.8237  -2.8164  -2.8124
    -2.8057  -2.8002  -2.7894  -2.7791  -2.7720  -2.7664  -2.7577  -2.7528
    -0.9103  -0.8591  -0.8112  -0.7587  -0.6012  -0.5010  -0.4784  -0.4517
    -0.3911  -0.3516  -0.3133  -0.2858   0.0078   0.0593   0.0923   0.1217
     0.1733   0.1922   0.2213   0.2662   0.3133   0.3361   0.3617   0.3858
     0.4398   0.4919   0.5406   0.5667   0.6255   0.6802   0.6957   0.7614
     0.7937   0.8159   0.8445   0.8904   0.9107   0.9220   0.9516   0.9619
     0.9842   1.0108   1.0218   1.0287   1.0456   1.0712   1.0956   1.1101
     1.1561   1.1672   1.1983   1.2056   1.2223   1.2429   1.2669   1.2858
     1.3093   1.3251   1.3441   1.3478   1.3767   1.4040   1.4264   1.4370
     1.4656   1.4969   1.5113   1.5288   1.5431   1.5926   1.6117   1.6585

          k = 0.3755 0.1254 0.1287 (302262 PWs)   bands (ev):

   -17.5688 -17.5335 -17.5266 -17.5054 -17.5050 -17.5006 -17.5005 -17.4821
   -14.3692 -14.3652 -14.3587 -14.3525 -14.3414 -14.3328 -14.3322 -14.3289
   -14.3251 -14.3247 -14.3240 -14.3225 -14.3210 -14.3185 -14.3170 -14.3122
   -14.3120 -14.3094 -14.3045 -14.2983 -14.2970 -14.2965 -14.2929 -14.2903
   -14.2899 -14.2893 -14.2873 -14.2866 -14.2843 -14.2816 -14.2814 -14.2773
   -14.2771 -14.2699 -14.2637 -14.2581 -14.2548 -14.2516 -14.2492 -14.2436
   -10.5783 -10.5698 -10.5539 -10.5471 -10.5320 -10.5310 -10.5092 -10.4830
    -9.7309  -9.6302  -9.5950  -9.5395  -9.5128  -9.4465  -9.4176  -9.3816
    -9.3390  -9.3186  -9.3088  -9.2748  -9.2538  -9.2324  -9.2128  -9.2051
    -9.1940  -9.1795  -9.1580  -9.1455  -9.1030  -9.0915  -9.0766  -8.9970
    -7.0313  -7.0174  -6.9968  -6.9951  -6.9796  -6.9725  -6.9668  -6.9554
    -6.9509  -6.9135  -6.8701  -6.8615  -6.8539  -6.8424  -6.8298  -6.8212
    -5.8522  -5.6618  -5.4190  -5.3890  -5.2433  -5.2060  -4.9963  -4.9439
    -4.9146  -4.9083  -4.8901  -4.8815  -4.8785  -4.8598  -4.8291  -4.7376
    -2.8919  -2.8515  -2.8492  -2.8430  -2.8357  -2.8222  -2.8154  -2.8119
    -2.8020  -2.7981  -2.7887  -2.7811  -2.7706  -2.7656  -2.7615  -2.7561
    -0.9644  -0.9104  -0.8560  -0.8353  -0.7976  -0.7382  -0.6890  -0.6219
    -0.5372  -0.4405  -0.3867  -0.2941   0.0326   0.1184   0.1715   0.2177
     0.2432   0.2731   0.2992   0.3093   0.3650   0.3892   0.4132   0.4659
     0.4806   0.5448   0.5941   0.6212   0.6863   0.7088   0.7491   0.7855
     0.8178   0.8346   0.8749   0.9184   0.9300   0.9411   0.9630   0.9887
     1.0092   1.0310   1.0371   1.0509   1.0724   1.0977   1.1194   1.1350
     1.1581   1.1750   1.1953   1.2060   1.2151   1.2342   1.2549   1.2622
     1.2720   1.2870   1.2990   1.3543   1.3955   1.4389   1.4540   1.4919
     1.5104   1.5288   1.5494   1.5612   1.5931   1.6155   1.7978   1.8553

          k = 0.3755 0.1254 0.3861 (302281 PWs)   bands (ev):

   -17.5688 -17.5335 -17.5266 -17.5054 -17.5050 -17.5006 -17.5006 -17.4821
   -14.3684 -14.3635 -14.3588 -14.3549 -14.3411 -14.3328 -14.3322 -14.3274
   -14.3249 -14.3246 -14.3233 -14.3223 -14.3210 -14.3185 -14.3170 -14.3142
   -14.3120 -14.3104 -14.3046 -14.2983 -14.2970 -14.2965 -14.2926 -14.2903
   -14.2899 -14.2893 -14.2866 -14.2854 -14.2843 -14.2816 -14.2814 -14.2795
   -14.2771 -14.2699 -14.2637 -14.2581 -14.2548 -14.2516 -14.2492 -14.2436
   -10.5779 -10.5690 -10.5529 -10.5485 -10.5317 -10.5312 -10.5097 -10.4833
    -9.7037  -9.6438  -9.6025  -9.5566  -9.5066  -9.4643  -9.4292  -9.4038
    -9.3275  -9.3234  -9.2933  -9.2703  -9.2428  -9.2161  -9.2007  -9.1961
    -9.1852  -9.1680  -9.1601  -9.1347  -9.1257  -9.1000  -9.0719  -9.0201
    -7.0294  -7.0172  -6.9962  -6.9935  -6.9747  -6.9731  -6.9685  -6.9572
    -6.9541  -6.9165  -6.8621  -6.8580  -6.8497  -6.8461  -6.8314  -6.8256
    -5.7293  -5.5428  -5.5369  -5.3544  -5.3048  -5.1419  -5.1268  -4.9990
    -4.9206  -4.9040  -4.8961  -4.8812  -4.8774  -4.8664  -4.8449  -4.8092
    -2.8919  -2.8496  -2.8460  -2.8401  -2.8314  -2.8247  -2.8144  -2.8112
    -2.8030  -2.8006  -2.7903  -2.7786  -2.7736  -2.7674  -2.7602  -2.7576
    -0.8813  -0.8224  -0.7726  -0.7149  -0.6155  -0.5248  -0.4894  -0.4656
    -0.4066  -0.3751  -0.3259  -0.2783  -0.0018   0.0489   0.0884   0.1129
     0.1546   0.1819   0.1991   0.2677   0.3234   0.3471   0.3802   0.3860
     0.4620   0.5213   0.5452   0.5725   0.5995   0.6395   0.6619   0.7233
     0.7526   0.8125   0.8235   0.8589   0.8795   0.9253   0.9471   0.9744
     0.9967   1.0163   1.0307   1.0471   1.0581   1.0931   1.1011   1.1449
     1.1655   1.1848   1.2021   1.2097   1.2315   1.2424   1.2714   1.2794
     1.2912   1.3150   1.3248   1.3636   1.3892   1.3988   1.4320   1.4537
     1.4701   1.4969   1.5169   1.5382   1.5570   1.5830   1.6116   1.6673

          k = 0.3755 0.3763 0.1287 (302298 PWs)   bands (ev):

   -17.5688 -17.5335 -17.5266 -17.5054 -17.5050 -17.5006 -17.5005 -17.4821
   -14.3691 -14.3649 -14.3583 -14.3522 -14.3413 -14.3328 -14.3327 -14.3287
   -14.3254 -14.3248 -14.3241 -14.3224 -14.3209 -14.3185 -14.3170 -14.3122
   -14.3120 -14.3090 -14.3045 -14.2983 -14.2972 -14.2965 -14.2932 -14.2903
   -14.2899 -14.2893 -14.2876 -14.2865 -14.2843 -14.2816 -14.2814 -14.2775
   -14.2771 -14.2700 -14.2637 -14.2581 -14.2548 -14.2516 -14.2492 -14.2436
   -10.5784 -10.5685 -10.5543 -10.5470 -10.5323 -10.5307 -10.5099 -10.4834
    -9.7013  -9.6163  -9.5910  -9.5741  -9.5022  -9.4876  -9.4674  -9.4070
    -9.3367  -9.3016  -9.2746  -9.2501  -9.2454  -9.2241  -9.2151  -9.2008
    -9.1775  -9.1724  -9.1598  -9.1364  -9.1147  -9.0977  -9.0730  -9.0170
    -7.0313  -7.0174  -6.9969  -6.9952  -6.9794  -6.9731  -6.9659  -6.9562
    -6.9498  -6.9129  -6.8684  -6.8626  -6.8536  -6.8442  -6.8304  -6.8215
    -5.7428  -5.5657  -5.5399  -5.3713  -5.2903  -5.1206  -5.0938  -5.0003
    -4.9219  -4.9110  -4.8914  -4.8839  -4.8778  -4.8612  -4.8393  -4.8022
    -2.8886  -2.8490  -2.8463  -2.8382  -2.8318  -2.8227  -2.8165  -2.8127
    -2.8054  -2.8006  -2.7934  -2.7812  -2.7694  -2.7676  -2.7637  -2.7573
    -0.9533  -0.8393  -0.7981  -0.7205  -0.5890  -0.5373  -0.4869  -0.4297
    -0.4018  -0.3816  -0.3232  -0.2836   0.0142   0.0848   0.1166   0.1596
     0.1970   0.2086   0.2500   0.2590   0.2850   0.3060   0.3374   0.3662
     0.4849   0.5200   0.5389   0.5557   0.6387   0.6600   0.6878   0.7159
     0.7280   0.7556   0.7677   0.8203   0.8522   0.9018   0.9302   0.9501
     0.9778   1.0020   1.0222   1.0410   1.0614   1.0838   1.1149   1.1418
     1.1572   1.1833   1.1983   1.2205   1.2309   1.2636   1.2787   1.2939
     1.3240   1.3315   1.3609   1.3832   1.3927   1.4111   1.4322   1.4472
     1.4729   1.4807   1.4959   1.5347   1.5482   1.6018   1.6321   1.6697

          k = 0.3755 0.3763 0.3861 (302386 PWs)   bands (ev):

   -17.5688 -17.5335 -17.5266 -17.5054 -17.5050 -17.5006 -17.5006 -17.4821
   -14.3683 -14.3632 -14.3585 -14.3545 -14.3411 -14.3328 -14.3327 -14.3272
   -14.3251 -14.3248 -14.3232 -14.3224 -14.3210 -14.3185 -14.3170 -14.3143
   -14.3121 -14.3099 -14.3046 -14.2983 -14.2972 -14.2965 -14.2929 -14.2903
   -14.2899 -14.2893 -14.2866 -14.2856 -14.2843 -14.2816 -14.2814 -14.2797
   -14.2771 -14.2700 -14.2637 -14.2581 -14.2548 -14.2516 -14.2492 -14.2436
   -10.5781 -10.5679 -10.5536 -10.5478 -10.5319 -10.5311 -10.5104 -10.4837
    -9.6772  -9.6192  -9.5889  -9.5642  -9.5368  -9.5156  -9.4675  -9.4376
    -9.3145  -9.2939  -9.2682  -9.2479  -9.2310  -9.2092  -9.2040  -9.1868
    -9.1824  -9.1668  -9.1511  -9.1391  -9.1263  -9.0976  -9.0866  -9.0333
    -7.0294  -7.0173  -6.9963  -6.9932  -6.9754  -6.9733  -6.9671  -6.9587
    -6.9523  -6.9163  -6.8617  -6.8582  -6.8497  -6.8466  -6.8316  -6.8258
    -5.6231  -5.4497  -5.4355  -5.4227  -5.2689  -5.2630  -5.2379  -5.1058
    -4.9233  -4.9062  -4.8981  -4.8819  -4.8777  -4.8704  -4.8528  -4.8198
    -2.8889  -2.8512  -2.8476  -2.8399  -2.8332  -2.8243  -2.8170  -2.8090
    -2.8035  -2.7993  -2.7905  -2.7783  -2.7721  -2.7667  -2.7611  -2.7568
    -0.6413  -0.5966  -0.5520  -0.5211  -0.5000  -0.4495  -0.4195  -0.4068
    -0.3794  -0.3490  -0.3158  -0.2672   0.0101   0.0430   0.0733   0.0983
     0.1264   0.1374   0.1516   0.1851   0.2161   0.2298   0.2468   0.2947
     0.5007   0.5333   0.5554   0.5741   0.5891   0.6252   0.6578   0.6807
     0.7038   0.7370   0.7817   0.7978   0.8210   0.8474   0.8634   0.8798
     0.8975   0.9216   0.9349   0.9615   0.9860   1.0055   1.0484   1.0776
     1.1799   1.2089   1.2315   1.2373   1.2662   1.2814   1.2868   1.3100
     1.3392   1.3452   1.3563   1.3753   1.3905   1.4088   1.4214   1.4391
     1.4547   1.4662   1.4776   1.4817   1.5063   1.5138   1.5214   1.5452

          k =-0.1252-0.1254 0.1287 (302279 PWs)   bands (ev):

   -17.5688 -17.5335 -17.5266 -17.5054 -17.5050 -17.5006 -17.5005 -17.4821
   -14.3697 -14.3652 -14.3591 -14.3526 -14.3408 -14.3328 -14.3324 -14.3288
   -14.3253 -14.3247 -14.3243 -14.3220 -14.3211 -14.3185 -14.3170 -14.3125
   -14.3120 -14.3094 -14.3045 -14.2983 -14.2965 -14.2964 -14.2925 -14.2903
   -14.2899 -14.2893 -14.2873 -14.2866 -14.2843 -14.2816 -14.2814 -14.2773
   -14.2770 -14.2699 -14.2637 -14.2581 -14.2548 -14.2515 -14.2492 -14.2436
   -10.5793 -10.5694 -10.5545 -10.5481 -10.5313 -10.5298 -10.5095 -10.4820
    -9.7672  -9.6272  -9.5682  -9.5430  -9.4706  -9.4147  -9.3922  -9.3614
    -9.3471  -9.3279  -9.3198  -9.3055  -9.2756  -9.2579  -9.2440  -9.2201
    -9.2030  -9.1902  -9.1619  -9.1229  -9.1017  -9.0740  -9.0516  -8.9972
    -7.0313  -7.0173  -6.9971  -6.9950  -6.9798  -6.9726  -6.9676  -6.9551
    -6.9504  -6.9133  -6.8698  -6.8619  -6.8533  -6.8436  -6.8312  -6.8187
    -5.9661  -5.5325  -5.5198  -5.4948  -5.1124  -5.0817  -5.0685  -4.9323
    -4.9117  -4.9094  -4.8943  -4.8821  -4.8797  -4.8646  -4.8319  -4.6219
    -2.8955  -2.8497  -2.8462  -2.8441  -2.8384  -2.8261  -2.8230  -2.8096
    -2.8032  -2.7969  -2.7885  -2.7812  -2.7701  -2.7631  -2.7558  -2.7532
    -0.9922  -0.9392  -0.9035  -0.8961  -0.8387  -0.8160  -0.7830  -0.7608
    -0.7391  -0.6938  -0.6294  -0.5528   0.1409   0.2162   0.2270   0.2663
     0.3486   0.3525   0.3938   0.4294   0.4478   0.5262   0.5511   0.5644
     0.5755   0.6460   0.6784   0.7206   0.7443   0.7627   0.7851   0.8410
     0.8644   0.8740   0.8918   0.9106   0.9279   0.9493   0.9651   0.9773
     1.0094   1.0282   1.0460   1.0507   1.0737   1.1027   1.1155   1.1332
     1.1480   1.1693   1.1796   1.1887   1.1933   1.2110   1.2234   1.2363
     1.2461   1.2706   1.2788   1.3651   1.3910   1.4634   1.4699   1.5156
     1.5604   1.5807   1.5960   1.6045   1.6699   1.7612   1.7892   2.0210

          k =-0.1252 0.1254-0.1287 (302279 PWs)   bands (ev):

   -17.5688 -17.5335 -17.5266 -17.5054 -17.5050 -17.5006 -17.5005 -17.4821
   -14.3697 -14.3652 -14.3591 -14.3526 -14.3408 -14.3328 -14.3324 -14.3288
   -14.3253 -14.3247 -14.3243 -14.3221 -14.3211 -14.3185 -14.3170 -14.3125
   -14.3120 -14.3094 -14.3045 -14.2983 -14.2965 -14.2964 -14.2925 -14.2903
   -14.2899 -14.2893 -14.2873 -14.2866 -14.2843 -14.2816 -14.2814 -14.2773
   -14.2770 -14.2699 -14.2637 -14.2581 -14.2548 -14.2515 -14.2492 -14.2436
   -10.5794 -10.5698 -10.5544 -10.5481 -10.5318 -10.5295 -10.5092 -10.4816
    -9.7707  -9.6266  -9.5611  -9.5374  -9.4691  -9.4221  -9.4057  -9.3584
    -9.3507  -9.3309  -9.3133  -9.2980  -9.2749  -9.2583  -9.2494  -9.2180
    -9.2044  -9.1888  -9.1591  -9.1250  -9.0998  -9.0740  -9.0525  -8.9969
    -7.0313  -7.0173  -6.9969  -6.9951  -6.9798  -6.9724  -6.9677  -6.9550
    -6.9510  -6.9133  -6.8698  -6.8619  -6.8539  -6.8426  -6.8316  -6.8186
    -5.9664  -5.5299  -5.5222  -5.4931  -5.1120  -5.0834  -5.0759  -4.9313
    -4.9134  -4.9065  -4.8940  -4.8807  -4.8771  -4.8627  -4.8307  -4.6241
    -2.8953  -2.8493  -2.8469  -2.8456  -2.8382  -2.8261  -2.8232  -2.8099
    -2.8027  -2.7972  -2.7883  -2.7815  -2.7700  -2.7626  -2.7552  -2.7528
    -1.0040  -0.9604  -0.9050  -0.8807  -0.8311  -0.8206  -0.7779  -0.7520
    -0.7381  -0.6898  -0.6279  -0.5413   0.1387   0.2123   0.2296   0.2761
     0.3359   0.3499   0.3839   0.4195   0.4412   0.5061   0.5321   0.5581
     0.6118   0.6623   0.6803   0.6994   0.7230   0.7569   0.7892   0.8442
     0.8694   0.8923   0.9055   0.9310   0.9362   0.9665   0.9792   0.9886
     1.0013   1.0131   1.0377   1.0597   1.0783   1.0974   1.1127   1.1245
     1.1418   1.1563   1.1655   1.1786   1.1892   1.2097   1.2179   1.2379
     1.2636   1.2736   1.2801   1.3555   1.3827   1.4602   1.4818   1.5189
     1.5572   1.5717   1.5893   1.6061   1.7083   1.7625   1.7822   2.0365

          k = 0.1252-0.1254-0.1287 (302279 PWs)   bands (ev):

   -17.5688 -17.5335 -17.5266 -17.5054 -17.5050 -17.5006 -17.5005 -17.4821
   -14.3697 -14.3652 -14.3591 -14.3526 -14.3408 -14.3328 -14.3324 -14.3288
   -14.3253 -14.3247 -14.3243 -14.3221 -14.3211 -14.3185 -14.3170 -14.3125
   -14.3120 -14.3094 -14.3045 -14.2983 -14.2965 -14.2964 -14.2925 -14.2903
   -14.2899 -14.2893 -14.2873 -14.2866 -14.2843 -14.2816 -14.2814 -14.2773
   -14.2770 -14.2699 -14.2637 -14.2581 -14.2548 -14.2515 -14.2492 -14.2436
   -10.5794 -10.5698 -10.5544 -10.5481 -10.5318 -10.5294 -10.5093 -10.4816
    -9.7708  -9.6266  -9.5604  -9.5380  -9.4684  -9.4222  -9.4078  -9.3583
    -9.3477  -9.3292  -9.3171  -9.2990  -9.2742  -9.2579  -9.2496  -9.2163
    -9.2010  -9.1930  -9.1602  -9.1236  -9.1005  -9.0738  -9.0526  -8.9968
    -7.0312  -7.0173  -6.9969  -6.9951  -6.9797  -6.9725  -6.9676  -6.9554
    -6.9505  -6.9133  -6.8700  -6.8617  -6.8540  -6.8423  -6.8314  -6.8189
    -5.9666  -5.5297  -5.5222  -5.4929  -5.1122  -5.0834  -5.0761  -4.9313
    -4.9135  -4.9062  -4.8941  -4.8808  -4.8772  -4.8625  -4.8306  -4.6241
    -2.8957  -2.8513  -2.8479  -2.8449  -2.8370  -2.8252  -2.8229  -2.8093
    -2.8022  -2.7962  -2.7902  -2.7808  -2.7702  -2.7627  -2.7552  -2.7530
    -0.9987  -0.9651  -0.9045  -0.8827  -0.8304  -0.8115  -0.7813  -0.7588
    -0.7362  -0.6902  -0.6300  -0.5413   0.1394   0.2120   0.2304   0.2766
     0.3375   0.3459   0.3864   0.4235   0.4369   0.5043   0.5240   0.5657
     0.6153   0.6648   0.6923   0.7049   0.7149   0.7560   0.8039   0.8398
     0.8609   0.8816   0.9042   0.9167   0.9354   0.9598   0.9802   0.9910
     1.0023   1.0293   1.0449   1.0586   1.0703   1.0963   1.1055   1.1217
     1.1471   1.1535   1.1675   1.1826   1.1928   1.2063   1.2187   1.2348
     1.2574   1.2752   1.2906   1.3557   1.3823   1.4609   1.4818   1.5202
     1.5582   1.5734   1.5901   1.6043   1.7093   1.7603   1.7797   2.0373

          k =-0.1252-0.1254 0.3861 (302311 PWs)   bands (ev):

   -17.5688 -17.5335 -17.5266 -17.5054 -17.5050 -17.5006 -17.5006 -17.4821
   -14.3690 -14.3635 -14.3592 -14.3549 -14.3405 -14.3328 -14.3324 -14.3274
   -14.3251 -14.3247 -14.3229 -14.3224 -14.3211 -14.3185 -14.3170 -14.3145
   -14.3120 -14.3104 -14.3046 -14.2983 -14.2965 -14.2964 -14.2923 -14.2903
   -14.2898 -14.2893 -14.2866 -14.2854 -14.2843 -14.2816 -14.2814 -14.2795
   -14.2771 -14.2699 -14.2637 -14.2581 -14.2548 -14.2516 -14.2492 -14.2436
   -10.5788 -10.5685 -10.5535 -10.5495 -10.5313 -10.5301 -10.5101 -10.4823
    -9.7363  -9.6786  -9.5476  -9.5171  -9.4931  -9.4610  -9.3937  -9.3784
    -9.3382  -9.3345  -9.3107  -9.3025  -9.2609  -9.2534  -9.2256  -9.2058
    -9.1949  -9.1686  -9.1458  -9.1238  -9.1164  -9.0782  -9.0633  -9.0188
    -7.0291  -7.0172  -6.9971  -6.9929  -6.9746  -6.9735  -6.9688  -6.9568
    -6.9541  -6.9164  -6.8615  -6.8587  -6.8499  -6.8459  -6.8318  -6.8252
    -5.8401  -5.6459  -5.4139  -5.4018  -5.2276  -5.2164  -5.0227  -4.9432
    -4.9193  -4.9051  -4.8979  -4.8807  -4.8787  -4.8554  -4.8327  -4.7483
    -2.8945  -2.8474  -2.8432  -2.8391  -2.8344  -2.8268  -2.8188  -2.8089
    -2.8061  -2.7986  -2.7890  -2.7801  -2.7744  -2.7683  -2.7591  -2.7524
    -0.9164  -0.8813  -0.8700  -0.8141  -0.7876  -0.7576  -0.7228  -0.6848
    -0.5489  -0.4194  -0.4109  -0.2680  -0.0055   0.0947   0.1147   0.2121
     0.2569   0.2794   0.3191   0.3485   0.3821   0.3914   0.4113   0.4639
     0.4751   0.5256   0.6725   0.6946   0.7070   0.7233   0.8067   0.8231
     0.8416   0.8634   0.8739   0.9061   0.9366   0.9630   0.9746   0.9925
     1.0114   1.0340   1.0453   1.0575   1.0703   1.0906   1.1078   1.1235
     1.1423   1.1575   1.1803   1.1907   1.2073   1.2217   1.2340   1.2562
     1.2796   1.2898   1.3313   1.3556   1.3728   1.3827   1.4201   1.4709
     1.5264   1.5436   1.5810   1.5879   1.6019   1.6136   1.7021   1.8153

          k =-0.1252 0.1254-0.3861 (302311 PWs)   bands (ev):

   -17.5688 -17.5335 -17.5266 -17.5054 -17.5050 -17.5006 -17.5006 -17.4821
   -14.3690 -14.3635 -14.3592 -14.3549 -14.3405 -14.3328 -14.3324 -14.3274
   -14.3251 -14.3247 -14.3229 -14.3224 -14.3211 -14.3185 -14.3170 -14.3145
   -14.3120 -14.3104 -14.3046 -14.2983 -14.2965 -14.2964 -14.2923 -14.2903
   -14.2898 -14.2893 -14.2866 -14.2854 -14.2843 -14.2816 -14.2814 -14.2795
   -14.2771 -14.2699 -14.2637 -14.2581 -14.2548 -14.2516 -14.2492 -14.2436
   -10.5789 -10.5688 -10.5535 -10.5494 -10.5319 -10.5297 -10.5098 -10.4819
    -9.7396  -9.6788  -9.5403  -9.5103  -9.4936  -9.4647  -9.3966  -9.3787
    -9.3470  -9.3371  -9.3068  -9.2990  -9.2620  -9.2578  -9.2249  -9.2049
    -9.1920  -9.1679  -9.1471  -9.1227  -9.1157  -9.0781  -9.0635  -9.0182
    -7.0293  -7.0170  -6.9967  -6.9934  -6.9747  -6.9732  -6.9689  -6.9569
    -6.9543  -6.9164  -6.8615  -6.8586  -6.8497  -6.8459  -6.8325  -6.8246
    -5.8396  -5.6447  -5.4112  -5.4062  -5.2255  -5.2228  -5.0205  -4.9392
    -4.9190  -4.9072  -4.8977  -4.8807  -4.8779  -4.8543  -4.8321  -4.7509
    -2.8942  -2.8473  -2.8436  -2.8405  -2.8342  -2.8259  -2.8201  -2.8087
    -2.8058  -2.7990  -2.7894  -2.7806  -2.7734  -2.7686  -2.7583  -2.7520
    -0.9510  -0.8978  -0.8487  -0.7958  -0.7864  -0.7401  -0.7237  -0.6733
    -0.5556  -0.4171  -0.4071  -0.2692  -0.0082   0.0932   0.1082   0.2058
     0.2518   0.2847   0.3225   0.3411   0.3794   0.3845   0.4150   0.4458
     0.4747   0.5401   0.6876   0.6993   0.7088   0.7262   0.7665   0.8060
     0.8612   0.8704   0.8992   0.9136   0.9416   0.9501   0.9672   0.9967
     1.0116   1.0268   1.0374   1.0432   1.0766   1.0896   1.1097   1.1197
     1.1336   1.1632   1.1775   1.1947   1.2070   1.2285   1.2389   1.2703
     1.2846   1.3055   1.3207   1.3508   1.3735   1.3858   1.4092   1.4714
     1.5266   1.5465   1.5573   1.5839   1.5940   1.6054   1.7377   1.8384

          k = 0.1252-0.1254-0.3861 (302311 PWs)   bands (ev):

   -17.5688 -17.5335 -17.5266 -17.5054 -17.5050 -17.5006 -17.5006 -17.4821
   -14.3690 -14.3635 -14.3592 -14.3549 -14.3405 -14.3328 -14.3324 -14.3274
   -14.3251 -14.3247 -14.3229 -14.3224 -14.3211 -14.3185 -14.3170 -14.3145
   -14.3120 -14.3104 -14.3046 -14.2983 -14.2965 -14.2964 -14.2923 -14.2903
   -14.2898 -14.2893 -14.2866 -14.2854 -14.2843 -14.2816 -14.2814 -14.2795
   -14.2771 -14.2699 -14.2637 -14.2581 -14.2548 -14.2516 -14.2492 -14.2436
   -10.5789 -10.5688 -10.5535 -10.5493 -10.5319 -10.5296 -10.5098 -10.4819
    -9.7398  -9.6787  -9.5387  -9.5126  -9.4939  -9.4630  -9.3985  -9.3780
    -9.3450  -9.3379  -9.3067  -9.3005  -9.2628  -9.2552  -9.2275  -9.2003
    -9.1944  -9.1690  -9.1447  -9.1237  -9.1166  -9.0785  -9.0631  -9.0180
    -7.0292  -7.0171  -6.9968  -6.9934  -6.9743  -6.9737  -6.9689  -6.9577
    -6.9535  -6.9164  -6.8621  -6.8581  -6.8496  -6.8458  -6.8318  -6.8253
    -5.8401  -5.6443  -5.4107  -5.4060  -5.2260  -5.2231  -5.0206  -4.9393
    -4.9190  -4.9066  -4.8982  -4.8804  -4.8784  -4.8542  -4.8318  -4.7510
    -2.8946  -2.8483  -2.8453  -2.8403  -2.8334  -2.8250  -2.8189  -2.8082
    -2.8047  -2.7988  -2.7914  -2.7792  -2.7741  -2.7687  -2.7583  -2.7522
    -0.9507  -0.8971  -0.8491  -0.7961  -0.7833  -0.7377  -0.7250  -0.6738
    -0.5597  -0.4212  -0.4072  -0.2719  -0.0063   0.0938   0.1136   0.2090
     0.2529   0.2844   0.3193   0.3403   0.3780   0.3870   0.4151   0.4488
     0.4745   0.5444   0.6817   0.6904   0.7065   0.7405   0.7597   0.8016
     0.8588   0.8792   0.9000   0.9110   0.9415   0.9509   0.9698   0.9933
     1.0086   1.0191   1.0407   1.0478   1.0723   1.0904   1.1086   1.1179
     1.1376   1.1670   1.1838   1.1908   1.2062   1.2278   1.2408   1.2684
     1.2856   1.2988   1.3205   1.3549   1.3723   1.3878   1.4119   1.4711
     1.5319   1.5484   1.5539   1.5781   1.5927   1.6072   1.7375   1.8391

          k =-0.1252-0.3763 0.1287 (302267 PWs)   bands (ev):

   -17.5688 -17.5335 -17.5266 -17.5054 -17.5050 -17.5006 -17.5005 -17.4821
   -14.3696 -14.3649 -14.3587 -14.3523 -14.3407 -14.3330 -14.3328 -14.3286
   -14.3256 -14.3248 -14.3244 -14.3219 -14.3210 -14.3185 -14.3170 -14.3125
   -14.3120 -14.3090 -14.3045 -14.2983 -14.2967 -14.2964 -14.2928 -14.2903
   -14.2899 -14.2893 -14.2876 -14.2865 -14.2843 -14.2816 -14.2814 -14.2775
   -14.2771 -14.2700 -14.2637 -14.2581 -14.2548 -14.2515 -14.2492 -14.2436
   -10.5792 -10.5673 -10.5552 -10.5481 -10.5316 -10.5293 -10.5108 -10.4831
    -9.7347  -9.6276  -9.6016  -9.5260  -9.5022  -9.4373  -9.4197  -9.3808
    -9.3555  -9.3259  -9.3026  -9.2866  -9.2671  -9.2422  -9.2289  -9.2107
    -9.1781  -9.1650  -9.1561  -9.1300  -9.1084  -9.0838  -9.0570  -9.0167
    -7.0314  -7.0172  -6.9968  -6.9954  -6.9796  -6.9729  -6.9666  -6.9557
    -6.9505  -6.9127  -6.8681  -6.8629  -6.8542  -6.8433  -6.8323  -6.8192
    -5.8535  -5.6585  -5.4220  -5.3889  -5.2400  -5.2090  -4.9934  -4.9418
    -4.9175  -4.9074  -4.8935  -4.8831  -4.8773  -4.8549  -4.8310  -4.7356
    -2.8916  -2.8496  -2.8421  -2.8391  -2.8341  -2.8251  -2.8210  -2.8137
    -2.8071  -2.8026  -2.7913  -2.7812  -2.7685  -2.7660  -2.7565  -2.7548
    -0.9778  -0.9298  -0.8746  -0.8487  -0.8056  -0.7786  -0.7264  -0.6016
    -0.5139  -0.4100  -0.3666  -0.2622   0.0338   0.1308   0.1749   0.2057
     0.2565   0.2793   0.2978   0.3100   0.3694   0.4015   0.4340   0.4716
     0.5068   0.5568   0.5710   0.6011   0.6708   0.7371   0.7800   0.7932
     0.8273   0.8570   0.8684   0.9044   0.9231   0.9466   0.9576   0.9723
     0.9978   1.0239   1.0314   1.0619   1.0687   1.0787   1.1219   1.1461
     1.1686   1.1757   1.1919   1.2032   1.2172   1.2408   1.2427   1.2582
     1.2744   1.2925   1.3259   1.3447   1.4018   1.4253   1.4487   1.4838
     1.5068   1.5221   1.5410   1.5596   1.5878   1.6136   1.7864   1.8417

          k =-0.1252 0.3763-0.1287 (302267 PWs)   bands (ev):

   -17.5688 -17.5335 -17.5266 -17.5054 -17.5050 -17.5006 -17.5005 -17.4821
   -14.3696 -14.3649 -14.3587 -14.3523 -14.3407 -14.3330 -14.3328 -14.3286
   -14.3256 -14.3248 -14.3244 -14.3219 -14.3210 -14.3185 -14.3170 -14.3125
   -14.3120 -14.3090 -14.3045 -14.2983 -14.2967 -14.2964 -14.2928 -14.2903
   -14.2899 -14.2893 -14.2876 -14.2865 -14.2843 -14.2816 -14.2814 -14.2775
   -14.2771 -14.2700 -14.2637 -14.2581 -14.2548 -14.2515 -14.2492 -14.2436
   -10.5793 -10.5678 -10.5551 -10.5480 -10.5314 -10.5297 -10.5104 -10.4827
    -9.7405  -9.6208  -9.6006  -9.5138  -9.5003  -9.4476  -9.4364  -9.3740
    -9.3540  -9.3307  -9.2977  -9.2802  -9.2681  -9.2446  -9.2351  -9.2050
    -9.1793  -9.1675  -9.1561  -9.1271  -9.1059  -9.0825  -9.0606  -9.0160
    -7.0314  -7.0172  -6.9965  -6.9957  -6.9795  -6.9728  -6.9666  -6.9560
    -6.9506  -6.9127  -6.8681  -6.8628  -6.8550  -6.8421  -6.8329  -6.8191
    -5.8541  -5.6580  -5.4222  -5.3841  -5.2394  -5.2156  -5.0078  -4.9322
    -4.9162  -4.9068  -4.8948  -4.8803  -4.8735  -4.8510  -4.8285  -4.7427
    -2.8913  -2.8496  -2.8425  -2.8408  -2.8343  -2.8254  -2.8209  -2.8140
    -2.8059  -2.8029  -2.7912  -2.7816  -2.7685  -2.7656  -2.7557  -2.7544
    -0.9834  -0.9403  -0.8762  -0.8429  -0.8108  -0.7748  -0.7273  -0.6098
    -0.4982  -0.3875  -0.3455  -0.2445   0.0226   0.0882   0.1622   0.1947
     0.2582   0.2853   0.2964   0.3213   0.3564   0.3775   0.4226   0.4397
     0.5035   0.5793   0.5884   0.6371   0.6637   0.7317   0.7738   0.8134
     0.8255   0.8596   0.8845   0.9215   0.9304   0.9402   0.9634   0.9851
     0.9983   1.0139   1.0344   1.0508   1.0704   1.0873   1.1010   1.1416
     1.1691   1.1798   1.1868   1.1946   1.2158   1.2325   1.2499   1.2671
     1.2798   1.2849   1.3145   1.3317   1.3875   1.4218   1.4608   1.4704
     1.5095   1.5239   1.5485   1.5656   1.6031   1.6193   1.7741   1.8663

          k = 0.1252-0.3763-0.1287 (302267 PWs)   bands (ev):

   -17.5688 -17.5335 -17.5266 -17.5054 -17.5050 -17.5006 -17.5005 -17.4821
   -14.3696 -14.3649 -14.3587 -14.3523 -14.3407 -14.3330 -14.3328 -14.3286
   -14.3256 -14.3248 -14.3244 -14.3219 -14.3210 -14.3185 -14.3170 -14.3125
   -14.3120 -14.3090 -14.3045 -14.2983 -14.2967 -14.2964 -14.2928 -14.2903
   -14.2899 -14.2893 -14.2876 -14.2865 -14.2843 -14.2816 -14.2814 -14.2775
   -14.2771 -14.2700 -14.2637 -14.2581 -14.2548 -14.2515 -14.2492 -14.2436
   -10.5792 -10.5678 -10.5551 -10.5480 -10.5315 -10.5295 -10.5104 -10.4827
    -9.7410  -9.6190  -9.6011  -9.5127  -9.5032  -9.4444  -9.4390  -9.3745
    -9.3534  -9.3293  -9.2999  -9.2805  -9.2672  -9.2455  -9.2333  -9.2055
    -9.1777  -9.1681  -9.1575  -9.1276  -9.1040  -9.0846  -9.0599  -9.0159
    -7.0314  -7.0172  -6.9965  -6.9957  -6.9795  -6.9729  -6.9666  -6.9560
    -6.9506  -6.9127  -6.8684  -6.8625  -6.8549  -6.8420  -6.8327  -6.8193
    -5.8545  -5.6576  -5.4222  -5.3837  -5.2396  -5.2160  -5.0085  -4.9320
    -4.9160  -4.9066  -4.8947  -4.8803  -4.8737  -4.8508  -4.8279  -4.7432
    -2.8918  -2.8508  -2.8444  -2.8396  -2.8339  -2.8242  -2.8194  -2.8136
    -2.8059  -2.8027  -2.7926  -2.7808  -2.7687  -2.7655  -2.7562  -2.7544
    -0.9800  -0.9410  -0.8771  -0.8480  -0.8010  -0.7795  -0.7271  -0.6088
    -0.5012  -0.3908  -0.3466  -0.2466   0.0265   0.0930   0.1680   0.1894
     0.2586   0.2848   0.2984   0.3176   0.3573   0.3743   0.4144   0.4464
     0.5166   0.5736   0.5893   0.6344   0.6673   0.7347   0.7866   0.8064
     0.8223   0.8587   0.8792   0.9218   0.9287   0.9361   0.9621   0.9740
     0.9984   1.0137   1.0333   1.0477   1.0708   1.0870   1.1055   1.1454
     1.1682   1.1804   1.1934   1.2014   1.2085   1.2390   1.2455   1.2557
     1.2816   1.2900   1.3165   1.3298   1.3887   1.4246   1.4589   1.4777
     1.5016   1.5316   1.5512   1.5661   1.5971   1.6195   1.7730   1.8650

          k =-0.1252-0.3763 0.3861 (302304 PWs)   bands (ev):

   -17.5688 -17.5335 -17.5266 -17.5054 -17.5050 -17.5006 -17.5005 -17.4821
   -14.3689 -14.3632 -14.3589 -14.3546 -14.3405 -14.3330 -14.3328 -14.3271
   -14.3254 -14.3248 -14.3227 -14.3225 -14.3211 -14.3185 -14.3170 -14.3145
   -14.3121 -14.3099 -14.3046 -14.2983 -14.2966 -14.2965 -14.2926 -14.2903
   -14.2899 -14.2893 -14.2866 -14.2856 -14.2843 -14.2816 -14.2814 -14.2797
   -14.2771 -14.2700 -14.2637 -14.2581 -14.2548 -14.2516 -14.2492 -14.2436
   -10.5788 -10.5667 -10.5545 -10.5489 -10.5311 -10.5297 -10.5115 -10.4833
    -9.7061  -9.6516  -9.6002  -9.5495  -9.4953  -9.4586  -9.4084  -9.3858
    -9.3683  -9.3491  -9.2879  -9.2793  -9.2597  -9.2250  -9.2082  -9.1885
    -9.1784  -9.1592  -9.1464  -9.1254  -9.1187  -9.0831  -9.0801  -9.0334
    -7.0295  -7.0170  -6.9963  -6.9938  -6.9754  -6.9734  -6.9676  -6.9584
    -6.9528  -6.9162  -6.8611  -6.8587  -6.8497  -6.8464  -6.8320  -6.8254
    -5.7295  -5.5439  -5.5353  -5.3557  -5.3057  -5.1394  -5.1248  -4.9998
    -4.9211  -4.9046  -4.8965  -4.8828  -4.8745  -4.8658  -4.8447  -4.8081
    -2.8910  -2.8516  -2.8436  -2.8392  -2.8360  -2.8226  -2.8160  -2.8124
    -2.8068  -2.8016  -2.7882  -2.7792  -2.7729  -2.7669  -2.7585  -2.7533
    -0.9102  -0.8589  -0.8109  -0.7596  -0.6140  -0.4973  -0.4911  -0.4489
    -0.3808  -0.3440  -0.3020  -0.2764   0.0027   0.0465   0.0866   0.1165
     0.1719   0.1994   0.2172   0.2677   0.3181   0.3295   0.3721   0.3848
     0.4470   0.4899   0.5347   0.5654   0.6262   0.6786   0.7013   0.7643
     0.7860   0.8112   0.8465   0.8862   0.9089   0.9259   0.9480   0.9632
     0.9909   1.0078   1.0180   1.0328   1.0420   1.0692   1.1024   1.1116
     1.1569   1.1749   1.1915   1.2068   1.2304   1.2375   1.2641   1.2887
     1.3017   1.3221   1.3448   1.3584   1.3809   1.3964   1.4225   1.4377
     1.4726   1.4871   1.5143   1.5259   1.5479   1.5870   1.6123   1.6622

          k =-0.1252 0.3763-0.3861 (302304 PWs)   bands (ev):

   -17.5688 -17.5335 -17.5266 -17.5054 -17.5050 -17.5006 -17.5005 -17.4821
   -14.3689 -14.3632 -14.3589 -14.3546 -14.3405 -14.3330 -14.3328 -14.3271
   -14.3254 -14.3248 -14.3227 -14.3226 -14.3211 -14.3185 -14.3170 -14.3145
   -14.3121 -14.3099 -14.3046 -14.2983 -14.2966 -14.2965 -14.2926 -14.2903
   -14.2899 -14.2893 -14.2866 -14.2856 -14.2843 -14.2816 -14.2814 -14.2797
   -14.2771 -14.2700 -14.2637 -14.2581 -14.2548 -14.2516 -14.2492 -14.2436
   -10.5788 -10.5671 -10.5544 -10.5488 -10.5308 -10.5303 -10.5111 -10.4830
    -9.7110  -9.6529  -9.5944  -9.5445  -9.4880  -9.4599  -9.4194  -9.3845
    -9.3703  -9.3528  -9.2873  -9.2750  -9.2589  -9.2275  -9.2105  -9.1878
    -9.1805  -9.1594  -9.1431  -9.1219  -9.1196  -9.0857  -9.0788  -9.0327
    -7.0296  -7.0168  -6.9953  -6.9948  -6.9752  -6.9735  -6.9676  -6.9589
    -6.9526  -6.9163  -6.8611  -6.8587  -6.8496  -6.8463  -6.8327  -6.8248
    -5.7286  -5.5440  -5.5333  -5.3588  -5.3085  -5.1371  -5.1304  -4.9880
    -4.9223  -4.9061  -4.8985  -4.8808  -4.8731  -4.8678  -4.8445  -4.8099
    -2.8907  -2.8515  -2.8439  -2.8409  -2.8353  -2.8230  -2.8163  -2.8122
    -2.8066  -2.8018  -2.7884  -2.7799  -2.7719  -2.7672  -2.7576  -2.7528
    -0.9234  -0.8689  -0.8087  -0.7589  -0.5991  -0.4881  -0.4808  -0.4370
    -0.3876  -0.3417  -0.2866  -0.2610  -0.0147   0.0245   0.0730   0.1032
     0.1644   0.1813   0.2232   0.2812   0.3046   0.3293   0.3703   0.3868
     0.4421   0.4926   0.5476   0.5777   0.6199   0.6840   0.7002   0.7540
     0.7932   0.8374   0.8536   0.8883   0.9065   0.9357   0.9463   0.9637
     0.9787   0.9839   1.0013   1.0335   1.0379   1.0759   1.0958   1.1303
     1.1496   1.1754   1.1998   1.2186   1.2374   1.2483   1.2614   1.2778
     1.3128   1.3256   1.3396   1.3625   1.3674   1.3935   1.4163   1.4415
     1.4556   1.4677   1.5069   1.5144   1.5610   1.5917   1.6313   1.6913

          k = 0.1252-0.3763-0.3861 (302304 PWs)   bands (ev):

   -17.5688 -17.5335 -17.5266 -17.5054 -17.5050 -17.5006 -17.5005 -17.4821
   -14.3689 -14.3632 -14.3589 -14.3546 -14.3405 -14.3330 -14.3328 -14.3271
   -14.3254 -14.3248 -14.3227 -14.3226 -14.3211 -14.3185 -14.3170 -14.3145
   -14.3121 -14.3099 -14.3046 -14.2983 -14.2966 -14.2965 -14.2926 -14.2903
   -14.2899 -14.2893 -14.2866 -14.2856 -14.2843 -14.2816 -14.2814 -14.2797
   -14.2771 -14.2700 -14.2637 -14.2581 -14.2548 -14.2516 -14.2492 -14.2436
   -10.5788 -10.5672 -10.5544 -10.5487 -10.5311 -10.5300 -10.5111 -10.4829
    -9.7121  -9.6516  -9.5921  -9.5472  -9.4909  -9.4557  -9.4204  -9.3853
    -9.3699  -9.3533  -9.2864  -9.2757  -9.2567  -9.2298  -9.2134  -9.1863
    -9.1762  -9.1596  -9.1447  -9.1247  -9.1173  -9.0865  -9.0783  -9.0323
    -7.0296  -7.0168  -6.9954  -6.9948  -6.9752  -6.9735  -6.9677  -6.9590
    -6.9525  -6.9162  -6.8618  -6.8581  -6.8495  -6.8463  -6.8320  -6.8255
    -5.7294  -5.5432  -5.5321  -5.3599  -5.3085  -5.1382  -5.1301  -4.9872
    -4.9222  -4.9061  -4.8985  -4.8807  -4.8738  -4.8673  -4.8443  -4.8103
    -2.8912  -2.8528  -2.8456  -2.8393  -2.8350  -2.8218  -2.8146  -2.8122
    -2.8071  -2.8014  -2.7899  -2.7786  -2.7726  -2.7673  -2.7579  -2.7528
    -0.9217  -0.8701  -0.8096  -0.7574  -0.5905  -0.4921  -0.4701  -0.4412
    -0.3933  -0.3472  -0.2960  -0.2766  -0.0114   0.0408   0.0853   0.1157
     0.1612   0.1993   0.2113   0.2677   0.2934   0.3399   0.3649   0.3876
     0.4365   0.4936   0.5560   0.5742   0.6218   0.6838   0.6971   0.7501
     0.7943   0.8300   0.8534   0.8927   0.9082   0.9430   0.9454   0.9597
     0.9710   0.9830   1.0045   1.0244   1.0393   1.0750   1.1019   1.1249
     1.1527   1.1870   1.2034   1.2199   1.2380   1.2496   1.2535   1.2704
     1.3078   1.3251   1.3431   1.3508   1.3862   1.3918   1.4233   1.4385
     1.4519   1.4759   1.5035   1.5153   1.5597   1.5916   1.6309   1.6887

          k =-0.3755-0.1254 0.1287 (302262 PWs)   bands (ev):

   -17.5688 -17.5335 -17.5266 -17.5054 -17.5050 -17.5006 -17.5005 -17.4821
   -14.3692 -14.3652 -14.3587 -14.3525 -14.3414 -14.3328 -14.3322 -14.3289
   -14.3251 -14.3247 -14.3240 -14.3225 -14.3210 -14.3185 -14.3170 -14.3122
   -14.3120 -14.3094 -14.3045 -14.2983 -14.2970 -14.2965 -14.2929 -14.2903
   -14.2899 -14.2893 -14.2873 -14.2866 -14.2843 -14.2816 -14.2814 -14.2773
   -14.2771 -14.2699 -14.2637 -14.2581 -14.2548 -14.2516 -14.2492 -14.2436
   -10.5783 -10.5698 -10.5538 -10.5472 -10.5320 -10.5310 -10.5092 -10.4830
    -9.7299  -9.6314  -9.5958  -9.5390  -9.5134  -9.4475  -9.4147  -9.3802
    -9.3422  -9.3212  -9.3041  -9.2769  -9.2531  -9.2317  -9.2133  -9.2049
    -9.1907  -9.1811  -9.1604  -9.1446  -9.1042  -9.0905  -9.0764  -8.9973
    -7.0313  -7.0175  -6.9968  -6.9951  -6.9796  -6.9725  -6.9668  -6.9553
    -6.9508  -6.9136  -6.8699  -6.8616  -6.8542  -6.8423  -6.8295  -6.8216
    -5.8522  -5.6617  -5.4189  -5.3891  -5.2435  -5.2061  -4.9960  -4.9447
    -4.9147  -4.9082  -4.8901  -4.8816  -4.8785  -4.8599  -4.8293  -4.7366
    -2.8918  -2.8502  -2.8466  -2.8427  -2.8380  -2.8205  -2.8162  -2.8118
    -2.8044  -2.7969  -2.7878  -2.7813  -2.7715  -2.7660  -2.7624  -2.7567
    -0.9740  -0.8983  -0.8639  -0.8367  -0.7946  -0.7334  -0.6885  -0.6215
    -0.5366  -0.4398  -0.3884  -0.2950   0.0297   0.1186   0.1848   0.2115
     0.2438   0.2705   0.2969   0.3063   0.3636   0.3915   0.4215   0.4604
     0.4797   0.5445   0.5940   0.6249   0.6881   0.7167   0.7444   0.7949
     0.8158   0.8285   0.8672   0.9211   0.9298   0.9388   0.9595   0.9798
     1.0068   1.0259   1.0407   1.0516   1.0767   1.1038   1.1207   1.1316
     1.1586   1.1782   1.1926   1.2030   1.2200   1.2358   1.2577   1.2645
     1.2741   1.2865   1.2978   1.3485   1.3964   1.4345   1.4645   1.4882
     1.5033   1.5304   1.5462   1.5562   1.5963   1.6164   1.8004   1.8602

          k =-0.3755 0.1254-0.1287 (302262 PWs)   bands (ev):

   -17.5688 -17.5335 -17.5266 -17.5054 -17.5050 -17.5006 -17.5005 -17.4821
   -14.3692 -14.3652 -14.3587 -14.3525 -14.3414 -14.3328 -14.3322 -14.3289
   -14.3251 -14.3247 -14.3240 -14.3225 -14.3210 -14.3185 -14.3170 -14.3122
   -14.3120 -14.3094 -14.3045 -14.2983 -14.2970 -14.2965 -14.2929 -14.2903
   -14.2899 -14.2893 -14.2873 -14.2866 -14.2843 -14.2816 -14.2814 -14.2773
   -14.2771 -14.2699 -14.2637 -14.2581 -14.2548 -14.2516 -14.2492 -14.2436
   -10.5783 -10.5702 -10.5538 -10.5472 -10.5321 -10.5310 -10.5089 -10.4827
    -9.7368  -9.6218  -9.5955  -9.5287  -9.5123  -9.4646  -9.4191  -9.3767
    -9.3404  -9.3214  -9.3040  -9.2750  -9.2559  -9.2304  -9.2112  -9.2072
    -9.1949  -9.1804  -9.1582  -9.1402  -9.1036  -9.0903  -9.0788  -8.9971
    -7.0313  -7.0174  -6.9965  -6.9953  -6.9796  -6.9723  -6.9669  -6.9553
    -6.9514  -6.9135  -6.8699  -6.8616  -6.8546  -6.8415  -6.8299  -6.8214
    -5.8527  -5.6612  -5.4193  -5.3844  -5.2428  -5.2126  -5.0106  -4.9355
    -4.9143  -4.9063  -4.8902  -4.8800  -4.8732  -4.8575  -4.8259  -4.7442
    -2.8916  -2.8500  -2.8470  -2.8443  -2.8377  -2.8218  -2.8153  -2.8119
    -2.8033  -2.7985  -2.7875  -2.7815  -2.7714  -2.7652  -2.7618  -2.7563
    -0.9782  -0.9093  -0.8632  -0.8370  -0.7964  -0.7350  -0.6906  -0.6305
    -0.5151  -0.4200  -0.3623  -0.2779   0.0159   0.0825   0.1572   0.2055
     0.2425   0.2697   0.3038   0.3213   0.3537   0.3743   0.3972   0.4397
     0.4893   0.5578   0.6002   0.6545   0.6886   0.7096   0.7534   0.8044
     0.8295   0.8510   0.8794   0.9066   0.9280   0.9334   0.9587   0.9854
     1.0069   1.0253   1.0406   1.0535   1.0728   1.0924   1.1182   1.1428
     1.1576   1.1716   1.1892   1.2033   1.2213   1.2347   1.2531   1.2578
     1.2684   1.2826   1.3086   1.3358   1.3936   1.4192   1.4633   1.4789
     1.5183   1.5250   1.5416   1.5846   1.6043   1.6232   1.7882   1.8817

          k = 0.3755-0.1254-0.1287 (302262 PWs)   bands (ev):

   -17.5688 -17.5335 -17.5266 -17.5054 -17.5050 -17.5006 -17.5005 -17.4821
   -14.3692 -14.3652 -14.3587 -14.3525 -14.3414 -14.3328 -14.3322 -14.3289
   -14.3251 -14.3247 -14.3240 -14.3225 -14.3210 -14.3185 -14.3170 -14.3122
   -14.3120 -14.3094 -14.3045 -14.2983 -14.2970 -14.2965 -14.2929 -14.2903
   -14.2899 -14.2893 -14.2873 -14.2866 -14.2843 -14.2816 -14.2814 -14.2773
   -14.2771 -14.2699 -14.2637 -14.2581 -14.2548 -14.2516 -14.2492 -14.2436
   -10.5783 -10.5703 -10.5538 -10.5471 -10.5322 -10.5309 -10.5090 -10.4827
    -9.7364  -9.6239  -9.5948  -9.5279  -9.5104  -9.4647  -9.4213  -9.3783
    -9.3360  -9.3178  -9.3104  -9.2762  -9.2548  -9.2308  -9.2115  -9.2047
    -9.1931  -9.1816  -9.1611  -9.1393  -9.1036  -9.0899  -9.0792  -8.9970
    -7.0313  -7.0174  -6.9965  -6.9953  -6.9796  -6.9724  -6.9668  -6.9553
    -6.9513  -6.9135  -6.8701  -6.8614  -6.8546  -6.8414  -6.8296  -6.8218
    -5.8529  -5.6612  -5.4190  -5.3842  -5.2430  -5.2127  -5.0101  -4.9359
    -4.9144  -4.9064  -4.8905  -4.8801  -4.8730  -4.8575  -4.8262  -4.7437
    -2.8920  -2.8516  -2.8491  -2.8432  -2.8363  -2.8197  -2.8160  -2.8115
    -2.8019  -2.7983  -2.7893  -2.7811  -2.7717  -2.7655  -2.7618  -2.7561
    -0.9680  -0.9220  -0.8604  -0.8340  -0.7976  -0.7378  -0.6924  -0.6312
    -0.5136  -0.4190  -0.3634  -0.2785   0.0143   0.0823   0.1774   0.1945
     0.2425   0.2675   0.3032   0.3185   0.3538   0.3797   0.4079   0.4317
     0.4754   0.5687   0.5995   0.6611   0.6863   0.7073   0.7409   0.7987
     0.8270   0.8497   0.8839   0.9136   0.9250   0.9387   0.9694   0.9952
     1.0070   1.0195   1.0409   1.0493   1.0669   1.0832   1.1037   1.1439
     1.1605   1.1766   1.1936   1.2159   1.2202   1.2386   1.2452   1.2566
     1.2740   1.2853   1.3021   1.3367   1.3916   1.4179   1.4627   1.4820
     1.5144   1.5331   1.5434   1.5858   1.6010   1.6219   1.7853   1.8806

          k =-0.3755-0.1254 0.3861 (302281 PWs)   bands (ev):

   -17.5688 -17.5335 -17.5266 -17.5054 -17.5050 -17.5006 -17.5006 -17.4821
   -14.3684 -14.3635 -14.3588 -14.3549 -14.3411 -14.3328 -14.3322 -14.3274
   -14.3249 -14.3246 -14.3233 -14.3223 -14.3210 -14.3185 -14.3170 -14.3142
   -14.3120 -14.3104 -14.3046 -14.2983 -14.2970 -14.2965 -14.2926 -14.2903
   -14.2899 -14.2893 -14.2866 -14.2854 -14.2843 -14.2816 -14.2814 -14.2795
   -14.2771 -14.2699 -14.2637 -14.2581 -14.2548 -14.2516 -14.2492 -14.2436
   -10.5779 -10.5689 -10.5528 -10.5487 -10.5316 -10.5314 -10.5097 -10.4833
    -9.7013  -9.6477  -9.6024  -9.5555  -9.5083  -9.4627  -9.4302  -9.4014
    -9.3289  -9.3240  -9.2915  -9.2728  -9.2404  -9.2162  -9.2021  -9.1957
    -9.1805  -9.1734  -9.1581  -9.1339  -9.1267  -9.1023  -9.0697  -9.0208
    -7.0293  -7.0173  -6.9962  -6.9935  -6.9744  -6.9735  -6.9685  -6.9570
    -6.9540  -6.9165  -6.8616  -6.8586  -6.8499  -6.8461  -6.8304  -6.8265
    -5.7292  -5.5435  -5.5361  -5.3549  -5.3043  -5.1423  -5.1265  -5.0004
    -4.9205  -4.9040  -4.8958  -4.8815  -4.8772  -4.8662  -4.8448  -4.8084
    -2.8919  -2.8483  -2.8437  -2.8395  -2.8329  -2.8241  -2.8143  -2.8116
    -2.8068  -2.7982  -2.7892  -2.7787  -2.7746  -2.7680  -2.7611  -2.7581
    -0.8844  -0.8221  -0.7774  -0.7118  -0.6159  -0.5156  -0.4891  -0.4627
    -0.4132  -0.3744  -0.3239  -0.2796  -0.0023   0.0513   0.0813   0.1164
     0.1575   0.1811   0.2010   0.2690   0.3220   0.3449   0.3790   0.3859
     0.4674   0.5205   0.5355   0.5698   0.6065   0.6451   0.6653   0.7238
     0.7481   0.8063   0.8267   0.8467   0.8747   0.9302   0.9458   0.9765
     0.9983   1.0208   1.0318   1.0457   1.0620   1.0920   1.1075   1.1396
     1.1663   1.1805   1.1995   1.2127   1.2298   1.2470   1.2717   1.2850
     1.2962   1.3099   1.3302   1.3610   1.3905   1.3972   1.4202   1.4478
     1.4711   1.4902   1.5261   1.5369   1.5545   1.5819   1.6155   1.6735

          k =-0.3755 0.1254-0.3861 (302281 PWs)   bands (ev):

   -17.5688 -17.5335 -17.5266 -17.5054 -17.5050 -17.5006 -17.5006 -17.4821
   -14.3684 -14.3635 -14.3588 -14.3549 -14.3411 -14.3328 -14.3322 -14.3274
   -14.3249 -14.3246 -14.3233 -14.3223 -14.3210 -14.3185 -14.3170 -14.3142
   -14.3120 -14.3104 -14.3046 -14.2983 -14.2970 -14.2965 -14.2926 -14.2903
   -14.2899 -14.2893 -14.2866 -14.2854 -14.2843 -14.2816 -14.2814 -14.2795
   -14.2771 -14.2699 -14.2637 -14.2581 -14.2548 -14.2516 -14.2492 -14.2436
   -10.5779 -10.5693 -10.5527 -10.5486 -10.5321 -10.5311 -10.5094 -10.4830
    -9.7078  -9.6474  -9.5945  -9.5531  -9.5020  -9.4607  -9.4403  -9.4058
    -9.3291  -9.3232  -9.2918  -9.2705  -9.2418  -9.2195  -9.2068  -9.1912
    -9.1854  -9.1690  -9.1534  -9.1337  -9.1272  -9.1016  -9.0703  -9.0203
    -7.0296  -7.0171  -6.9953  -6.9944  -6.9745  -6.9732  -6.9686  -6.9573
    -6.9541  -6.9165  -6.8616  -6.8585  -6.8498  -6.8461  -6.8314  -6.8256
    -5.7281  -5.5433  -5.5344  -5.3578  -5.3079  -5.1394  -5.1326  -4.9882
    -4.9215  -4.9058  -4.8970  -4.8803  -4.8761  -4.8679  -4.8445  -4.8104
    -2.8916  -2.8483  -2.8438  -2.8407  -2.8330  -2.8241  -2.8145  -2.8118
    -2.8041  -2.8009  -2.7896  -2.7792  -2.7738  -2.7681  -2.7603  -2.7574
    -0.8975  -0.8331  -0.7794  -0.7155  -0.5928  -0.5070  -0.4773  -0.4488
    -0.4125  -0.3711  -0.3121  -0.2715  -0.0238   0.0268   0.0818   0.0971
     0.1349   0.1796   0.2034   0.2710   0.3223   0.3412   0.3808   0.3934
     0.4518   0.5250   0.5565   0.5815   0.6046   0.6471   0.6651   0.7208
     0.7464   0.8109   0.8264   0.8667   0.8872   0.9305   0.9358   0.9598
     0.9898   1.0028   1.0333   1.0424   1.0579   1.1006   1.1106   1.1424
     1.1661   1.1852   1.2030   1.2199   1.2456   1.2496   1.2619   1.2818
     1.2998   1.3109   1.3226   1.3667   1.3898   1.3990   1.4215   1.4399
     1.4646   1.4825   1.5045   1.5233   1.5543   1.6016   1.6270   1.7029

          k = 0.3755-0.1254-0.3861 (302281 PWs)   bands (ev):

   -17.5688 -17.5335 -17.5266 -17.5054 -17.5050 -17.5006 -17.5006 -17.4821
   -14.3684 -14.3635 -14.3588 -14.3549 -14.3411 -14.3328 -14.3322 -14.3274
   -14.3249 -14.3246 -14.3233 -14.3223 -14.3210 -14.3185 -14.3170 -14.3142
   -14.3120 -14.3104 -14.3046 -14.2983 -14.2970 -14.2965 -14.2926 -14.2903
   -14.2899 -14.2893 -14.2866 -14.2854 -14.2843 -14.2816 -14.2814 -14.2795
   -14.2771 -14.2699 -14.2637 -14.2581 -14.2548 -14.2516 -14.2492 -14.2436
   -10.5779 -10.5694 -10.5528 -10.5484 -10.5322 -10.5310 -10.5095 -10.4830
    -9.7068  -9.6491  -9.5964  -9.5498  -9.5004  -9.4627  -9.4405  -9.4068
    -9.3277  -9.3212  -9.2950  -9.2714  -9.2401  -9.2161  -9.2124  -9.1892
    -9.1831  -9.1705  -9.1537  -9.1336  -9.1271  -9.1027  -9.0701  -9.0200
    -7.0296  -7.0171  -6.9953  -6.9944  -6.9745  -6.9732  -6.9686  -6.9573
    -6.9541  -6.9165  -6.8622  -6.8580  -6.8496  -6.8461  -6.8304  -6.8266
    -5.7284  -5.5439  -5.5335  -5.3578  -5.3071  -5.1403  -5.1321  -4.9889
    -4.9216  -4.9055  -4.8977  -4.8802  -4.8762  -4.8674  -4.8445  -4.8101
    -2.8920  -2.8492  -2.8457  -2.8410  -2.8316  -2.8229  -2.8131  -2.8110
    -2.8042  -2.8004  -2.7913  -2.7783  -2.7743  -2.7683  -2.7604  -2.7575
    -0.8950  -0.8327  -0.7763  -0.7155  -0.6034  -0.5035  -0.4809  -0.4480
    -0.4151  -0.3716  -0.3108  -0.2732  -0.0163   0.0354   0.0760   0.1082
     0.1348   0.1794   0.1968   0.2663   0.3216   0.3423   0.3798   0.3924
     0.4577   0.5231   0.5484   0.5766   0.6059   0.6430   0.6717   0.7224
     0.7455   0.8074   0.8288   0.8694   0.8930   0.9332   0.9358   0.9582
     0.9844   1.0054   1.0270   1.0461   1.0585   1.0972   1.1083   1.1470
     1.1656   1.1926   1.2072   1.2190   1.2340   1.2468   1.2608   1.2842
     1.2960   1.3139   1.3277   1.3675   1.3884   1.3982   1.4225   1.4420
     1.4637   1.4796   1.5117   1.5228   1.5540   1.5971   1.6279   1.7011

          k =-0.3755-0.3763 0.1287 (302298 PWs)   bands (ev):

   -17.5688 -17.5335 -17.5266 -17.5054 -17.5050 -17.5006 -17.5005 -17.4821
   -14.3691 -14.3649 -14.3583 -14.3522 -14.3413 -14.3328 -14.3327 -14.3287
   -14.3254 -14.3248 -14.3241 -14.3224 -14.3209 -14.3185 -14.3170 -14.3122
   -14.3120 -14.3090 -14.3045 -14.2983 -14.2972 -14.2965 -14.2932 -14.2903
   -14.2899 -14.2893 -14.2876 -14.2865 -14.2843 -14.2816 -14.2814 -14.2775
   -14.2771 -14.2700 -14.2637 -14.2581 -14.2548 -14.2516 -14.2492 -14.2436
   -10.5784 -10.5685 -10.5542 -10.5472 -10.5323 -10.5306 -10.5099 -10.4834
    -9.7003  -9.6173  -9.5916  -9.5742  -9.5042  -9.4869  -9.4659  -9.4057
    -9.3388  -9.2975  -9.2792  -9.2513  -9.2433  -9.2222  -9.2161  -9.1983
    -9.1795  -9.1719  -9.1591  -9.1386  -9.1153  -9.0963  -9.0728  -9.0176
    -7.0313  -7.0174  -6.9969  -6.9952  -6.9794  -6.9731  -6.9659  -6.9559
    -6.9501  -6.9129  -6.8681  -6.8628  -6.8537  -6.8442  -6.8302  -6.8218
    -5.7425  -5.5656  -5.5400  -5.3716  -5.2905  -5.1205  -5.0939  -5.0011
    -4.9217  -4.9111  -4.8909  -4.8840  -4.8778  -4.8613  -4.8393  -4.8016
    -2.8886  -2.8472  -2.8441  -2.8385  -2.8331  -2.8210  -2.8160  -2.8142
    -2.8083  -2.7990  -2.7927  -2.7816  -2.7701  -2.7678  -2.7644  -2.7583
    -0.9550  -0.8412  -0.7983  -0.7204  -0.5882  -0.5349  -0.4854  -0.4296
    -0.3977  -0.3818  -0.3239  -0.2842   0.0119   0.0827   0.1175   0.1567
     0.1883   0.2185   0.2478   0.2614   0.2872   0.3104   0.3426   0.3631
[...]
   -14.2767 -14.2753 -14.2662 -14.2646 -14.2618 -14.2604 -14.2586 -14.2565
   -14.2538 -14.2521 -14.2510 -14.2492 -14.2483 -14.2482 -14.2476 -14.2431
   -14.2385 -14.2373 -14.2311 -14.2262 -14.2238 -14.2209 -14.2187 -14.2121
   -10.5614 -10.5388 -10.5260 -10.5155 -10.5097 -10.4934 -10.4922 -10.4724
    -9.6477  -9.5953  -9.5417  -9.5300  -9.5020  -9.4921  -9.4610  -9.4215
    -9.2739  -9.2629  -9.2358  -9.2090  -9.1978  -9.1839  -9.1790  -9.1631
    -9.1500  -9.1403  -9.1214  -9.1126  -9.0966  -9.0829  -9.0661  -9.0272
    -7.0268  -7.0128  -6.9927  -6.9783  -6.9645  -6.9559  -6.9545  -6.9279
    -6.9252  -6.9065  -6.8771  -6.8435  -6.8175  -6.7947  -6.7848  -6.7629
    -5.5886  -5.4138  -5.4072  -5.3962  -5.2447  -5.2334  -5.2190  -5.0590
    -4.9110  -4.9062  -4.8882  -4.8547  -4.8533  -4.8394  -4.8318  -4.8115
    -2.8587  -2.8479  -2.8133  -2.8080  -2.7999  -2.7952  -2.7835  -2.7821
    -2.7788  -2.7721  -2.7605  -2.7557  -2.7514  -2.7454  -2.7404  -2.7268
    -0.6710  -0.5968  -0.5186  -0.4820  -0.4343  -0.4060  -0.3855  -0.3773
    -0.3189  -0.3007  -0.2301  -0.2070  -0.0399  -0.0111   0.0375   0.0490
     0.1187   0.1743   0.1805   0.2130   0.2718   0.2851   0.3008   0.3314
     0.5067   0.5659   0.5850   0.6220   0.6588   0.6713   0.6881   0.7084
     0.7330   0.7885   0.7962   0.8127   0.8527   0.8632   0.8847   0.9034
     0.9352   0.9470   0.9688   0.9808   1.0090   1.0238   1.0650   1.1090
     1.2112   1.2464   1.2645   1.2720   1.2883   1.2970   1.3125   1.3414
     1.3502   1.3849   1.3912   1.3996   1.4156   1.4258   1.4344   1.4508
     1.4614   1.4745   1.4931   1.4995   1.5181   1.5532   1.5839   1.6059

          k = 0.3757-0.3795-0.3841 (302386 PWs)   bands (ev):

   -17.5918 -17.5582 -17.5521 -17.4851 -17.4711 -17.4382 -17.4350 -17.4109
   -14.3251 -14.3247 -14.3213 -14.3170 -14.3032 -14.2964 -14.2911 -14.2892
   -14.2872 -14.2861 -14.2860 -14.2850 -14.2837 -14.2831 -14.2777 -14.2768
   -14.2767 -14.2753 -14.2662 -14.2646 -14.2618 -14.2604 -14.2586 -14.2565
   -14.2538 -14.2521 -14.2510 -14.2492 -14.2483 -14.2482 -14.2476 -14.2431
   -14.2385 -14.2373 -14.2311 -14.2262 -14.2238 -14.2209 -14.2187 -14.2121
   -10.5614 -10.5388 -10.5260 -10.5154 -10.5098 -10.4934 -10.4922 -10.4724
    -9.6479  -9.5951  -9.5427  -9.5295  -9.5005  -9.4926  -9.4616  -9.4216
    -9.2760  -9.2603  -9.2352  -9.2135  -9.1937  -9.1849  -9.1793  -9.1606
    -9.1522  -9.1392  -9.1229  -9.1122  -9.0955  -9.0842  -9.0660  -9.0269
    -7.0268  -7.0128  -6.9927  -6.9784  -6.9643  -6.9557  -6.9548  -6.9279
    -6.9253  -6.9063  -6.8771  -6.8435  -6.8175  -6.7947  -6.7849  -6.7629
    -5.5890  -5.4127  -5.4068  -5.3970  -5.2440  -5.2334  -5.2200  -5.0591
    -4.9107  -4.9066  -4.8883  -4.8547  -4.8532  -4.8392  -4.8322  -4.8113
    -2.8599  -2.8485  -2.8101  -2.8091  -2.7995  -2.7952  -2.7848  -2.7822
    -2.7764  -2.7728  -2.7628  -2.7554  -2.7508  -2.7448  -2.7398  -2.7274
    -0.6624  -0.6031  -0.5167  -0.4831  -0.4349  -0.4036  -0.3873  -0.3754
    -0.3223  -0.3149  -0.2299  -0.2117  -0.0228  -0.0049   0.0356   0.0548
     0.1192   0.1709   0.1935   0.2049   0.2728   0.2810   0.2960   0.3254
     0.5088   0.5687   0.5839   0.6232   0.6577   0.6664   0.6901   0.7076
     0.7323   0.7792   0.7956   0.8184   0.8528   0.8721   0.8874   0.9061
     0.9347   0.9415   0.9591   0.9833   1.0083   1.0289   1.0657   1.1093
     1.2096   1.2518   1.2586   1.2778   1.2856   1.2959   1.3173   1.3285
     1.3585   1.3794   1.3952   1.4055   1.4124   1.4261   1.4316   1.4458
     1.4702   1.4730   1.4852   1.5040   1.5247   1.5512   1.5830   1.6040

     highest occupied level (ev):     2.0719

!    total energy              =  -16491.14729985 Ry
     Harris-Foulkes estimate   =  -16491.14729985 Ry
     estimated scf accuracy    <          1.4E-09 Ry

     total all-electron energy =   -677247.816564 Ry

     The total energy is the sum of the following terms:

     one-electron contribution =    -833.04053784 Ry
     hartree contribution      =     601.96136177 Ry
     xc contribution           =    -755.72685727 Ry
     ewald contribution        =   -1149.51196871 Ry
     DFT-D3 Dispersion         =      -0.62136013 Ry
     one-center paw contrib.   =  -14354.20793769 Ry

     convergence has been achieved in  10 iterations

     Forces acting on atoms (cartesian axes, Ry/au):

     atom    1 type  1   force =    -0.00016907   -0.00112642   -0.00014494
     atom    2 type  1   force =    -0.00023858   -0.00060976   -0.00026716
     atom    3 type  1   force =    -0.00010756   -0.00053154   -0.00026282
     atom    4 type  1   force =     0.00041059   -0.00034905    0.00008214
     atom    5 type  1   force =    -0.00011937   -0.00078554    0.00032740
     atom    6 type  1   force =    -0.00025391   -0.00029625   -0.00002173
     atom    7 type  1   force =    -0.00000632   -0.00083561    0.00025879
     atom    8 type  1   force =     0.00007807   -0.00113875   -0.00034620
     atom    9 type  2   force =    -0.00102000   -0.00001653    0.00002259
     atom   10 type  2   force =    -0.00012452    0.00145485    0.00145678
     atom   11 type  2   force =     0.00008982   -0.00035979    0.00043907
     atom   12 type  2   force =     0.00000577    0.00001072   -0.00028258
     atom   13 type  2   force =    -0.00077221    0.00042892   -0.00064734
     atom   14 type  2   force =    -0.00047102   -0.00018991   -0.00059357
     atom   15 type  2   force =    -0.00099719   -0.00003610    0.00134254
     atom   16 type  2   force =     0.00022163   -0.00018541   -0.00075298
     atom   17 type  2   force =     0.00022707   -0.00019396   -0.00051043
     atom   18 type  2   force =    -0.00043101   -0.00088693   -0.00055640
     atom   19 type  2   force =     0.00042491    0.00029169    0.00065269
     atom   20 type  2   force =    -0.00009172   -0.00051272    0.00024969
     atom   21 type  2   force =    -0.00012212   -0.00007504    0.00012364
     atom   22 type  2   force =     0.00052220    0.00068665   -0.00144643
     atom   23 type  2   force =    -0.00025973    0.00010503   -0.00006909
     atom   24 type  2   force =    -0.00056075   -0.00104670    0.00065690
     atom   25 type  2   force =     0.00043976    0.00048950    0.00090147
     atom   26 type  2   force =    -0.00000904   -0.00066208   -0.00087072
     atom   27 type  2   force =    -0.00050923   -0.00003470   -0.00010213
     atom   28 type  2   force =     0.00086632   -0.00007397    0.00189062
     atom   29 type  2   force =    -0.00026522    0.00059004    0.00042982
     atom   30 type  2   force =    -0.00091022    0.00012048    0.00026661
     atom   31 type  2   force =    -0.00051202    0.00024990   -0.00031860
     atom   32 type  2   force =     0.00015656   -0.00026386   -0.00048620
     atom   33 type  3   force =    -0.00094552   -0.00117200   -0.00031509
     atom   34 type  3   force =     0.00008410   -0.00071096    0.00055098
     atom   35 type  3   force =    -0.00013990    0.00028873   -0.00169802
     atom   36 type  3   force =     0.00056482   -0.00040046    0.00102107
     atom   37 type  3   force =    -0.00040471   -0.00127523    0.00012244
     atom   38 type  3   force =    -0.00163843    0.00029106   -0.00012350
     atom   39 type  3   force =    -0.00049497    0.00009897    0.00007377
     atom   40 type  3   force =     0.00148196    0.00176585    0.00079765
     atom   41 type  4   force =     0.00097641    0.00047949   -0.00003930
     atom   42 type  4   force =     0.00023481    0.00146574   -0.00035194
     atom   43 type  4   force =    -0.00025692   -0.00139636    0.00306773
     atom   44 type  4   force =    -0.00167765   -0.00016427   -0.00068509
     atom   45 type  4   force =     0.00023848    0.00157768   -0.00004478
     atom   46 type  4   force =     0.00267484   -0.00235062    0.00101176
     atom   47 type  4   force =     0.00213348   -0.00084370    0.00092199
     atom   48 type  4   force =    -0.00233191   -0.00171568   -0.00096095
     atom   49 type  5   force =     0.00074070   -0.00169104   -0.00022547
     atom   50 type  5   force =     0.00079251   -0.00054957    0.00004025
     atom   51 type  5   force =    -0.00042601    0.00349471   -0.00108407
     atom   52 type  5   force =    -0.00007296    0.00077534    0.00071868
     atom   53 type  5   force =    -0.00030280    0.00172469   -0.00067186
     atom   54 type  5   force =     0.00083506   -0.00369239    0.00144943
     atom   55 type  5   force =    -0.00018842    0.00068575    0.00045148
     atom   56 type  5   force =     0.00219864   -0.00005706    0.00054636
     atom   57 type  5   force =    -0.00114096    0.00111073   -0.00117875
     atom   58 type  5   force =     0.00017234   -0.00034745    0.00151757
     atom   59 type  5   force =    -0.00162979   -0.00043509   -0.00041379
     atom   60 type  5   force =    -0.00020553    0.00057335   -0.00094648
     atom   61 type  5   force =     0.00102929    0.00332372    0.00114712
     atom   62 type  5   force =    -0.00055210    0.00278994   -0.00079290
     atom   63 type  5   force =    -0.00159462   -0.00435918    0.00274650
     atom   64 type  5   force =     0.00339221    0.00408071   -0.00171679
     atom   65 type  5   force =     0.00070833   -0.00063050   -0.00192499
     atom   66 type  5   force =    -0.00271917   -0.00111372   -0.00113893
     atom   67 type  5   force =     0.00130123   -0.00113607   -0.00176830
     atom   68 type  5   force =    -0.00183882   -0.00113809    0.00107477
     atom   69 type  5   force =     0.00129372    0.00141829   -0.00008807
     atom   70 type  5   force =    -0.00129261   -0.00264805    0.00027099
     atom   71 type  5   force =     0.00198058    0.00102269   -0.00104486
     atom   72 type  5   force =     0.00022855    0.00026159    0.00111459
     atom   73 type  5   force =    -0.00024872    0.00162938    0.00006490
     atom   74 type  5   force =     0.00321256    0.00000599   -0.00032701
     atom   75 type  5   force =    -0.00080993    0.00115990   -0.00076919
     atom   76 type  5   force =     0.00071851   -0.00048616    0.00130935
     atom   77 type  5   force =    -0.00243563    0.00064341    0.00010714
     atom   78 type  5   force =     0.00043933   -0.00045967   -0.00125960
     atom   79 type  5   force =     0.00141591    0.00058213    0.00094612
     atom   80 type  5   force =    -0.00132575   -0.00058477    0.00059775
     atom   81 type  5   force =    -0.00021029    0.00160553   -0.00042709
     atom   82 type  5   force =    -0.00010656    0.00077123   -0.00030443
     atom   83 type  5   force =    -0.00054890    0.00006723   -0.00066743
     atom   84 type  5   force =     0.00063483   -0.00168358   -0.00017296
     atom   85 type  5   force =     0.00262388    0.00105859    0.00053835
     atom   86 type  5   force =    -0.00012206   -0.00128487   -0.00094006
     atom   87 type  5   force =     0.00002876   -0.00084479   -0.00016950
     atom   88 type  5   force =    -0.00159560    0.00116311   -0.00051723
     atom   89 type  5   force =    -0.00101680    0.00055502    0.00014240
     atom   90 type  5   force =     0.00084676   -0.00006168   -0.00072284
     atom   91 type  5   force =     0.00055215   -0.00046832   -0.00311645
     atom   92 type  5   force =    -0.00251327    0.00181956    0.00045499
     atom   93 type  5   force =     0.00071330   -0.00046416    0.00307660
     atom   94 type  5   force =    -0.00094923    0.00115187   -0.00267955
     atom   95 type  5   force =     0.00225615   -0.00115435   -0.00021684
     atom   96 type  5   force =    -0.00025954    0.00166070    0.00219997

     Total force =     0.019947     Total SCF correction =     0.000116


     Computing stress (Cartesian axis) and pressure

          total   stress  (Ry/bohr**3)                   (kbar)     P=    0.02
   0.00000022   0.00000650  -0.00000013          0.03      0.96     -0.02
   0.00000650   0.00000629  -0.00000138          0.96      0.93     -0.20
  -0.00000013  -0.00000138  -0.00000605         -0.02     -0.20     -0.89


     number of scf cycles    =  13
     number of bfgs steps    =  12

     enthalpy old            =  -16491.1466302269 Ry
     enthalpy new            =  -16491.1472998518 Ry

     CASE: enthalpy_new < enthalpy_old

     new trust radius        =       0.0451318696 bohr
     new conv_thr            =       0.0000000067 Ry

     new unit-cell volume =  13556.69138 a.u.^3 (  2008.89437 Ang^3 )
     density =      4.10475 g/cm^3

CELL_PARAMETERS (alat= 24.15259000)
   0.998169122   0.000000000   0.000000000
   0.000000000   0.987469701   0.000000000
   0.000000000   0.000000000   0.976190714

ATOMIC_POSITIONS (crystal)
Pb       0.001770815   0.004530724   0.001865975
Pb       0.001617843   0.005358897   0.501889308
Pb       0.002855217   0.507067243   0.000750804
Pb       0.001122582   0.507634332   0.502498179
Pb       0.503502884   0.004764238   0.001846943
Pb       0.503406236   0.004952044   0.502721584
Pb       0.506060925   0.504186617   0.003252050
Pb       0.504202344   0.507016647   0.501653583
I        0.254476535   0.010557035  -0.030785460
I        0.033445991   0.254063032   0.032663469
I        0.041224725  -0.043084449   0.250676531
I        0.253715033   0.021975431   0.532275598
I        0.024157126   0.256837237   0.464801891
I       -0.043004471   0.046928667   0.751177003
I        0.255889998   0.536629744   0.020208318
I        0.006869682   0.754898158  -0.045636406
I       -0.036442659   0.546198855   0.251267618
I        0.255408695   0.532230971   0.481300878
I        0.019359178   0.756670724   0.541145749
I        0.035135331   0.456585055   0.750822002
I        0.753694888   0.033361493   0.034170082
I        0.506309065   0.253575296  -0.034603161
I        0.459456743   0.043279842   0.251831222
I        0.753541698   0.025169013   0.465743204
I        0.515149745   0.255191578   0.534082709
I        0.541347585  -0.039506196   0.752368635
I        0.755609274   0.507753117  -0.031322087
I        0.531066260   0.753841467   0.030492478
I        0.540087684   0.457607269   0.251529239
I        0.754176411   0.521867090   0.532149156
I        0.523786455   0.755682391   0.464344784
I        0.471850825   0.536153715   0.752341833
C        0.286308405   0.289165143   0.248165369
C        0.279926692   0.287495450   0.748051227
C        0.286475338   0.789681802   0.249015549
C        0.283271451   0.779429879   0.745481701
C        0.784444084   0.290618451   0.248391326
C        0.784124834   0.287927307   0.746890575
C        0.790939087   0.786432189   0.247443167
C        0.783934097   0.787659130   0.745217223
N        0.206925860   0.202164799   0.253669084
N        0.203506442   0.197855456   0.754527453
N        0.207158581   0.702933275   0.253428277
N        0.212384779   0.685635119   0.754674946
N        0.700054540   0.208554876   0.254922647
N        0.697442475   0.208314826   0.750735761
N        0.706281189   0.704676653   0.252725174
N        0.706069788   0.700554385   0.756734972
H        0.157888682   0.204206970   0.186551971
H        0.158535555   0.210622128   0.320923486
H        0.242746226   0.128641011   0.257424936
H        0.335829810   0.276573668   0.177622878
H        0.334385728   0.286723806   0.320801622
H        0.245578309   0.365300152   0.241660178
H        0.210524761   0.147655827   0.688208007
H        0.126873523   0.224367092   0.757322707
H        0.216352563   0.150937674   0.822334172
H        0.263728721   0.333074348   0.675179565
H        0.359414289   0.255008964   0.745403613
H        0.270445400   0.337562826   0.819043891
H        0.211586505   0.654312295   0.185821086
H        0.131675094   0.732563774   0.257656289
H        0.219408202   0.655197061   0.320496427
H        0.270388842   0.838170354   0.178436292
H        0.364728499   0.754734444   0.244740028
H        0.280550371   0.837859835   0.321568607
H        0.211997395   0.640906033   0.685049553
H        0.136054368   0.708774319   0.770153879
H        0.234595442   0.635987588   0.817012135
H        0.258654101   0.827954513   0.677304782
H        0.363300237   0.750813499   0.733917924
H        0.277738821   0.825981304   0.819181103
H        0.702977316   0.157802233   0.188765128
H        0.626449342   0.242961210   0.257889897
H        0.709336633   0.160765500   0.322922281
H        0.772171785   0.338178236   0.175978889
H        0.860693078   0.250971649   0.244898602
H        0.780096110   0.341263597   0.319479752
H        0.648806738   0.214366504   0.683505809
H        0.649622881   0.219744460   0.817653843
H        0.726295950   0.131874344   0.753853251
H        0.832545838   0.272046340   0.676330229
H        0.831663340   0.280060335   0.819403305
H        0.750212511   0.367387556   0.742455902
H        0.656325352   0.709474085   0.186426199
H        0.659188714   0.715387289   0.320500806
H        0.737424100   0.629224820   0.255441367
H        0.838786181   0.771671549   0.176189073
H        0.840053903   0.779362725   0.318990934
H        0.754846380   0.864996527   0.243903123
H        0.707844612   0.649842123   0.690938035
H        0.630803837   0.729441363   0.763845514
H        0.720761836   0.653474427   0.823677108
H        0.764669020   0.833930571   0.673947572
H        0.861935198   0.753216459   0.737164216
H        0.780495619   0.838136592   0.816108871



     Writing output data file MAPbI_vcrelax_PAW5.save/
     NEW-OLD atomic charge density approx. for the potential
     extrapolated charge  399.61398, renormalised to  400.00000

     total cpu time spent up to now is   591761.1 secs

     Self-consistent Calculation

     iteration #  1     ecut=   120.00 Ry     beta= 0.70
     Davidson diagonalization with overlap
     ethr =  1.00E-06,  avg # of iterations =  4.0

     total cpu time spent up to now is   595237.7 secs

     total energy              =  -16491.14570298 Ry
     Harris-Foulkes estimate   =  -16491.72227588 Ry
     estimated scf accuracy    <       0.00325682 Ry

     iteration #  2     ecut=   120.00 Ry     beta= 0.70
     Davidson diagonalization with overlap
     ethr =  8.14E-07,  avg # of iterations =  3.0

     total cpu time spent up to now is   597542.6 secs

     total energy              =  -16491.14737015 Ry
     Harris-Foulkes estimate   =  -16491.14827373 Ry
     estimated scf accuracy    <       0.00233843 Ry

     iteration #  3     ecut=   120.00 Ry     beta= 0.70
     Davidson diagonalization with overlap
     ethr =  5.85E-07,  avg # of iterations =  2.0

     total cpu time spent up to now is   599282.9 secs

     total energy              =  -16491.14784647 Ry
     Harris-Foulkes estimate   =  -16491.14775084 Ry
     estimated scf accuracy    <       0.00027402 Ry

     iteration #  4     ecut=   120.00 Ry     beta= 0.70
     Davidson diagonalization with overlap
     ethr =  6.85E-08,  avg # of iterations =  2.0

     total cpu time spent up to now is   600758.7 secs

     total energy              =  -16491.14791293 Ry
     Harris-Foulkes estimate   =  -16491.14786976 Ry
     estimated scf accuracy    <       0.00015656 Ry

     iteration #  5     ecut=   120.00 Ry     beta= 0.70
     Davidson diagonalization with overlap
     ethr =  3.91E-08,  avg # of iterations =  2.0

     total cpu time spent up to now is   602129.4 secs

     total energy              =  -16491.14792863 Ry
     Harris-Foulkes estimate   =  -16491.14792037 Ry
     estimated scf accuracy    <       0.00005099 Ry

     iteration #  6     ecut=   120.00 Ry     beta= 0.70
     Davidson diagonalization with overlap
     ethr =  1.27E-08,  avg # of iterations =  2.0

     total cpu time spent up to now is   603826.6 secs

     total energy              =  -16491.14793391 Ry
     Harris-Foulkes estimate   =  -16491.14793476 Ry
     estimated scf accuracy    <       0.00000202 Ry

     iteration #  7     ecut=   120.00 Ry     beta= 0.70
     Davidson diagonalization with overlap
