
     Program PWSCF v.6.4 starts on 15Jun2020 at 13:12:11 

     This program is part of the open-source Quantum ESPRESSO suite
     for quantum simulation of materials; please cite
         "P. Giannozzi et al., J. Phys.:Condens. Matter 21 395502 (2009);
         "P. Giannozzi et al., J. Phys.:Condens. Matter 29 465901 (2017);
          URL http://www.quantum-espresso.org", 
     in publications or presentations arising from this work. More details at
     http://www.quantum-espresso.org/quote

     Parallel version (MPI), running on    32 processors

     MPI processes distributed on     1 nodes
     K-points division:     npool     =       4
     R & G space division:  proc/nbgrp/npool/nimage =       8
     Waiting for input...
     Reading input from standard input
     Message from routine read_cards :
     DEPRECATED: no units specified in CELL_PARAMETERS card

     Current dimensions of program PWSCF are:
     Max number of different atomic species (ntypx) = 10
     Max number of k-points (npk) =  40000
     Max angular momentum in pseudopotentials (lmaxx) =  3
               file Pb.pbe-dn-kjpaw_psl.1.0.0.UPF: wavefunction(s)  6S 6P 5D renormalized
               file I.pbe-n-kjpaw_psl.1.0.0.UPF: wavefunction(s)  5S renormalized
               file C.pbe-n-kjpaw_psl.1.0.0.UPF: wavefunction(s)  2S 2P renormalized
               file N.pbe-n-kjpaw_psl.1.0.0.UPF: wavefunction(s)  2S renormalized
               file H.pbe-kjpaw_psl.1.0.0.UPF: wavefunction(s)  1S renormalized

     --------------------------------------------
     Parameters for DFT-D3 Dispersion Correction:
     --------------------------------------------
       Reference C6 values for interpolation: 

         atom   Coordination number   C6
         H          0.912             6.05
         H          0.000            15.18
         C          0.000            98.23
         C          0.987            86.49
         C          1.998            58.72
         C          2.999            51.56
         C          3.984            36.41
         N          0.000            50.54
         N          0.994            44.25
         N          2.014            39.35
         N          2.990            31.16
         I          0.000           703.93
         I          0.997           717.00
         Pb         0.000          1477.63
         Pb         0.938          1266.00
         Pb         1.936          1088.91
         Pb         2.908          1048.37
         Pb         3.910           910.57

       Values used:

         atom   Coordination number  R0_AB[au]  C6      C8
         Pb         4.801            4.041    910.57 144158.41
         Pb         4.806            4.041    910.57 144158.40
         Pb         4.825            4.041    910.57 144158.36
         Pb         4.837            4.041    910.57 144158.34
         Pb         4.824            4.041    910.57 144158.36
         Pb         4.821            4.041    910.57 144158.37
         Pb         4.853            4.041    910.57 144158.31
         Pb         4.851            4.041    910.57 144158.31
         I          1.930            3.532    717.00  65855.99
         I          1.966            3.532    717.00  65856.00
         I          1.949            3.532    717.00  65855.99
         I          1.927            3.532    717.00  65855.99
         I          1.965            3.532    717.00  65856.00
         I          1.980            3.532    717.00  65856.00
         I          1.885            3.532    717.00  65855.99
         I          1.950            3.532    717.00  65855.99
         I          1.974            3.532    717.00  65856.00
         I          1.902            3.532    717.00  65855.99
         I          1.958            3.532    717.00  65856.00
         I          1.990            3.532    717.00  65856.00
         I          1.915            3.532    717.00  65855.99
         I          1.983            3.532    717.00  65856.00
         I          1.981            3.532    717.00  65856.00
         I          1.924            3.532    717.00  65855.99
         I          1.988            3.532    717.00  65856.00
         I          1.961            3.532    717.00  65856.00
         I          1.961            3.532    717.00  65856.00
         I          1.997            3.532    717.00  65856.00
         I          1.977            3.532    717.00  65856.00
         I          1.971            3.532    717.00  65856.00
         I          1.991            3.532    717.00  65856.00
         I          2.008            3.532    717.00  65856.00
         C          4.039            2.750     36.59   1058.23
         C          4.041            2.750     36.59   1058.12
         C          4.042            2.750     36.59   1058.12
         C          4.037            2.750     36.59   1058.31
         C          4.041            2.750     36.59   1058.16
         C          4.044            2.750     36.58   1058.04
         C          4.042            2.750     36.58   1058.09
         C          4.047            2.750     36.58   1057.93
         N          4.066            2.478     31.16    687.49
         N          4.060            2.478     31.16    687.49
         N          4.058            2.478     31.16    687.49
         N          4.069            2.478     31.16    687.49
         N          4.061            2.478     31.16    687.49
         N          4.066            2.478     31.16    687.49
         N          4.065            2.478     31.16    687.49
         N          4.059            2.478     31.16    687.49
         H          1.076            2.062      6.13     74.07
         H          1.071            2.062      6.13     74.10
         H          1.053            2.062      6.14     74.23
         H          1.008            2.062      6.17     74.64
         H          1.007            2.062      6.17     74.64
         H          1.007            2.062      6.18     74.65
         H          1.075            2.062      6.13     74.08
         H          1.039            2.062      6.15     74.34
         H          1.072            2.062      6.13     74.09
         H          1.008            2.062      6.17     74.63
         H          1.012            2.062      6.17     74.59
         H          1.008            2.062      6.17     74.63
         H          1.064            2.062      6.13     74.15
         H          1.045            2.062      6.15     74.29
         H          1.064            2.062      6.13     74.15
         H          1.009            2.062      6.17     74.63
         H          1.011            2.062      6.17     74.60
         H          1.009            2.062      6.17     74.63
         H          1.042            2.062      6.15     74.32
         H          1.042            2.062      6.15     74.31
         H          1.032            2.062      6.15     74.40
         H          1.013            2.062      6.17     74.58
         H          1.013            2.062      6.17     74.58
         H          1.011            2.062      6.17     74.60
         H          1.075            2.062      6.13     74.07
         H          1.044            2.062      6.15     74.30
         H          1.077            2.062      6.13     74.06
         H          1.008            2.062      6.17     74.63
         H          1.011            2.062      6.17     74.61
         H          1.008            2.062      6.17     74.63
         H          1.067            2.062      6.13     74.13
         H          1.068            2.062      6.13     74.12
         H          1.050            2.062      6.14     74.25
         H          1.008            2.062      6.17     74.63
         H          1.008            2.062      6.17     74.63
         H          1.008            2.062      6.17     74.63
         H          1.076            2.062      6.13     74.07
         H          1.071            2.062      6.13     74.10
         H          1.047            2.062      6.14     74.28
         H          1.008            2.062      6.17     74.63
         H          1.008            2.062      6.17     74.63
         H          1.008            2.062      6.17     74.63
         H          1.066            2.062      6.13     74.14
         H          1.036            2.062      6.15     74.36
         H          1.064            2.062      6.13     74.15
         H          1.009            2.062      6.17     74.62
         H          1.015            2.062      6.17     74.56
         H          1.009            2.062      6.17     74.62

         Molecular C6 ( Ry / a.u.^6 ) =   1196388.15


     Subspace diagonalization in iterative solution of the eigenvalue problem:
     a serial algorithm will be used


     Parallelization info
     --------------------
     sticks:   dense  smooth     PW     G-vecs:    dense   smooth      PW
     Min        2751    2751    709               299649   299649   39229
     Max        2752    2752    710               299652   299652   39232
     Sum       22009   22009   5677              2397207  2397207  313851



     bravais-lattice index     =            0
     lattice parameter (alat)  =      24.1526  a.u.
     unit-cell volume          =   13498.3565 (a.u.)^3
     number of atoms/cell      =           96
     number of atomic types    =            5
     number of electrons       =       400.00
     number of Kohn-Sham states=          200
     kinetic-energy cutoff     =     120.0000  Ry
     charge density cutoff     =     480.0000  Ry
     convergence threshold     =      1.0E-07
     mixing beta               =       0.7000
     number of iterations used =            8  plain     mixing
     Exchange-correlation      = SLA PW PBX PBC ( 1  4  3  4 0 0)
     nstep                     =          150


     celldm(1)=  24.152590  celldm(2)=   0.000000  celldm(3)=   0.000000
     celldm(4)=   0.000000  celldm(5)=   0.000000  celldm(6)=   0.000000

     crystal axes: (cart. coord. in units of alat)
               a(1) = (   1.003098   0.000000   0.000000 )  
               a(2) = (   0.000000   0.985092   0.000000 )  
               a(3) = (   0.000000   0.000000   0.969548 )  

     reciprocal axes: (cart. coord. in units 2 pi/alat)
               b(1) = (  0.996911  0.000000  0.000000 )  
               b(2) = (  0.000000  1.015134  0.000000 )  
               b(3) = (  0.000000  0.000000  1.031408 )  


     PseudoPot. # 1 for Pb read from file:
     ../Pseudopotential/Pb.pbe-dn-kjpaw_psl.1.0.0.UPF
     MD5 check sum: 684fc8fbce61a260853528575e4d9ab7
     Pseudo is Projector augmented-wave + core cor, Zval = 14.0
     Generated using "atomic" code by A. Dal Corso v.6.3
     Shape of augmentation charge: PSQ
     Using radial grid of 1281 points,  6 beta functions with: 
                l(1) =   0
                l(2) =   0
                l(3) =   1
                l(4) =   1
                l(5) =   2
                l(6) =   2
     Q(r) pseudized with 0 coefficients 


     PseudoPot. # 2 for I  read from file:
     ../Pseudopotential/I.pbe-n-kjpaw_psl.1.0.0.UPF
     MD5 check sum: cd3d296c3308a581e1559a0c8a554cb5
     Pseudo is Projector augmented-wave + core cor, Zval =  7.0
     Generated using "atomic" code by A. Dal Corso v.6.3
     Shape of augmentation charge: PSQ
     Using radial grid of 1247 points,  6 beta functions with: 
                l(1) =   0
                l(2) =   0
                l(3) =   1
                l(4) =   1
                l(5) =   2
                l(6) =   2
     Q(r) pseudized with 0 coefficients 


     PseudoPot. # 3 for C  read from file:
     ../Pseudopotential/C.pbe-n-kjpaw_psl.1.0.0.UPF
     MD5 check sum: 5f16ad9a65e90284d1d834d4ab3b0f7d
     Pseudo is Projector augmented-wave + core cor, Zval =  4.0
     Generated using "atomic" code by A. Dal Corso v.6.3
     Shape of augmentation charge: PSQ
     Using radial grid of 1073 points,  4 beta functions with: 
                l(1) =   0
                l(2) =   0
                l(3) =   1
                l(4) =   1
     Q(r) pseudized with 0 coefficients 


     PseudoPot. # 4 for N  read from file:
     ../Pseudopotential/N.pbe-n-kjpaw_psl.1.0.0.UPF
     MD5 check sum: 14c48229446f9f2d411169a3abcbc3fa
     Pseudo is Projector augmented-wave + core cor, Zval =  5.0
     Generated using "atomic" code by A. Dal Corso v.6.3
     Shape of augmentation charge: PSQ
     Using radial grid of 1085 points,  4 beta functions with: 
                l(1) =   0
                l(2) =   0
                l(3) =   1
                l(4) =   1
     Q(r) pseudized with 0 coefficients 


     PseudoPot. # 5 for H  read from file:
     ../Pseudopotential/H.pbe-kjpaw_psl.1.0.0.UPF
     MD5 check sum: d81a744832360e4a8af0b0b5b123bc2a
     Pseudo is Projector augmented-wave, Zval =  1.0
     Generated using "atomic" code by A. Dal Corso v.6.3MaX
     Shape of augmentation charge: PSQ
     Using radial grid of  929 points,  2 beta functions with: 
                l(1) =   0
                l(2) =   0
     Q(r) pseudized with 0 coefficients 


     atomic species   valence    mass     pseudopotential
        Pb            14.00   207.97600     Pb( 1.00)
        I              7.00   126.90400     I ( 1.00)
        C              4.00    12.00000     C ( 1.00)
        N              5.00    14.00300     N ( 1.00)
        H              1.00     1.00700     H ( 1.00)

     No symmetry found



   Cartesian axes

     site n.     atom                  positions (alat units)
         1           Pb  tau(   1) = (   0.0020039   0.0021506  -0.0008846  )
         2           Pb  tau(   2) = (   0.0000214   0.0032679   0.4844821  )
         3           Pb  tau(   3) = (   0.0039202   0.4968703  -0.0008599  )
         4           Pb  tau(   4) = (   0.0013867   0.4976599   0.4864610  )
         5           Pb  tau(   5) = (   0.5035731   0.0014703   0.0009186  )
         6           Pb  tau(   6) = (   0.5021789   0.0026601   0.4856680  )
         7           Pb  tau(   7) = (   0.5080127   0.4956058   0.0029338  )
         8           Pb  tau(   8) = (   0.5065345   0.4959018   0.4869984  )
         9           I   tau(   9) = (   0.2536679   0.0166670  -0.0322093  )
        10           I   tau(  10) = (   0.0278672   0.2490341   0.0414300  )
        11           I   tau(  11) = (   0.0402358  -0.0474586   0.2415427  )
        12           I   tau(  12) = (   0.2518135   0.0237309   0.5152014  )
        13           I   tau(  13) = (   0.0216550   0.2511857   0.4412290  )
        14           I   tau(  14) = (  -0.0403957   0.0535071   0.7266215  )
        15           I   tau(  15) = (   0.2563470   0.5234120   0.0266816  )
        16           I   tau(  16) = (   0.0160793   0.7415317  -0.0518868  )
        17           I   tau(  17) = (  -0.0319838   0.5422796   0.2425192  )
        18           I   tau(  18) = (   0.2544465   0.5240935   0.4640738  )
        19           I   tau(  19) = (   0.0163023   0.7438550   0.5299921  )
        20           I   tau(  20) = (   0.0336423   0.4392404   0.7274626  )
        21           I   tau(  21) = (   0.7551403   0.0248181   0.0315964  )
        22           I   tau(  22) = (   0.5198966   0.2480561  -0.0403162  )
        23           I   tau(  23) = (   0.4627782   0.0519369   0.2431977  )
        24           I   tau(  24) = (   0.7531862   0.0259765   0.4532065  )
        25           I   tau(  25) = (   0.5186804   0.2486833   0.5299297  )
        26           I   tau(  26) = (   0.5350667  -0.0502143   0.7280786  )
        27           I   tau(  27) = (   0.7578491   0.5124751  -0.0294440  )
        28           I   tau(  28) = (   0.5302583   0.7409050   0.0469650  )
        29           I   tau(  29) = (   0.5405754   0.4445084   0.2451151  )
        30           I   tau(  30) = (   0.7561863   0.5143998   0.5170782  )
        31           I   tau(  31) = (   0.5275531   0.7414427   0.4423124  )
        32           I   tau(  32) = (   0.4742313   0.5389530   0.7300424  )
        33           C   tau(  33) = (   0.2773065   0.2880517   0.2456891  )
        34           C   tau(  34) = (   0.2860198   0.2883164   0.7304887  )
        35           C   tau(  35) = (   0.2908747   0.7820776   0.2436868  )
        36           C   tau(  36) = (   0.2706596   0.7649722   0.7191152  )
        37           C   tau(  37) = (   0.7910354   0.2878292   0.2394345  )
        38           C   tau(  38) = (   0.7734572   0.2836386   0.7272932  )
        39           C   tau(  39) = (   0.7872111   0.7754200   0.2441683  )
        40           C   tau(  40) = (   0.7863577   0.7873252   0.7254012  )
        41           N   tau(  41) = (   0.2148740   0.1894550   0.2442825  )
        42           N   tau(  42) = (   0.2029500   0.2062236   0.7292766  )
        43           N   tau(  43) = (   0.2038398   0.7041149   0.2448167  )
        44           N   tau(  44) = (   0.2167743   0.6616192   0.7274353  )
        45           N   tau(  45) = (   0.7038708   0.2101229   0.2417065  )
        46           N   tau(  46) = (   0.7110426   0.1850231   0.7288382  )
        47           N   tau(  47) = (   0.7214378   0.6789677   0.2453909  )
        48           N   tau(  48) = (   0.7062426   0.7024083   0.7293940  )
        49           H   tau(  49) = (   0.1666665   0.1868285   0.1786082  )
        50           H   tau(  50) = (   0.1659586   0.1855040   0.3093005  )
        51           H   tau(  51) = (   0.2639393   0.1247443   0.2439488  )
        52           H   tau(  52) = (   0.3269798   0.2902930   0.1760540  )
        53           H   tau(  53) = (   0.3258975   0.2889315   0.3161233  )
        54           H   tau(  54) = (   0.2235579   0.3546613   0.2458843  )
        55           H   tau(  55) = (   0.2090400   0.1586751   0.6631976  )
        56           H   tau(  56) = (   0.1291490   0.2398093   0.7296272  )
        57           H   tau(  57) = (   0.2089179   0.1569435   0.7940512  )
        58           H   tau(  58) = (   0.2770598   0.3375158   0.6610117  )
        59           H   tau(  59) = (   0.3626237   0.2502820   0.7300660  )
        60           H   tau(  60) = (   0.2768839   0.3356173   0.8012583  )
        61           H   tau(  61) = (   0.2072638   0.6551331   0.1797395  )
        62           H   tau(  62) = (   0.1319388   0.7418615   0.2447214  )
        63           H   tau(  63) = (   0.2076258   0.6564304   0.3108148  )
        64           H   tau(  64) = (   0.2837524   0.8300391   0.1731445  )
        65           H   tau(  65) = (   0.3656106   0.7404707   0.2438296  )
        66           H   tau(  66) = (   0.2842865   0.8314912   0.3132683  )
        67           H   tau(  67) = (   0.2185393   0.6214632   0.6568206  )
        68           H   tau(  68) = (   0.1392673   0.6712058   0.7493689  )
        69           H   tau(  69) = (   0.2516842   0.6144327   0.7833533  )
        70           H   tau(  70) = (   0.2318865   0.8109980   0.6582396  )
        71           H   tau(  71) = (   0.3526688   0.7515543   0.6987613  )
        72           H   tau(  72) = (   0.2649034   0.8051211   0.7945314  )
        73           H   tau(  73) = (   0.7065535   0.1610226   0.1765922  )
        74           H   tau(  74) = (   0.6319750   0.2477235   0.2426575  )
        75           H   tau(  75) = (   0.7087223   0.1620136   0.3074746  )
        76           H   tau(  76) = (   0.7829450   0.3361553   0.1692235  )
        77           H   tau(  77) = (   0.8656160   0.2459548   0.2380476  )
        78           H   tau(  78) = (   0.7860302   0.3368519   0.3094209  )
        79           H   tau(  79) = (   0.6619856   0.1811053   0.6639923  )
        80           H   tau(  80) = (   0.6631836   0.1822750   0.7946533  )
        81           H   tau(  81) = (   0.7601378   0.1203875   0.7289731  )
        82           H   tau(  82) = (   0.8217857   0.2845514   0.6567001  )
        83           H   tau(  83) = (   0.8232600   0.2858634   0.7968149  )
        84           H   tau(  84) = (   0.7197279   0.3502373   0.7272525  )
        85           H   tau(  85) = (   0.6719490   0.6771091   0.1806700  )
        86           H   tau(  86) = (   0.6735969   0.6773756   0.3112931  )
        87           H   tau(  87) = (   0.7682304   0.6127141   0.2449621  )
        88           H   tau(  88) = (   0.8353848   0.7749443   0.1734522  )
        89           H   tau(  89) = (   0.8372762   0.7755230   0.3135710  )
        90           H   tau(  90) = (   0.7358669   0.8438679   0.2445376  )
        91           H   tau(  91) = (   0.7117155   0.6532232   0.6645844  )
        92           H   tau(  92) = (   0.6314311   0.7335763   0.7310668  )
        93           H   tau(  93) = (   0.7154759   0.6552037   0.7952543  )
        94           H   tau(  94) = (   0.7731751   0.8340736   0.6549105  )
        95           H   tau(  95) = (   0.8641739   0.7519634   0.7233643  )
        96           H   tau(  96) = (   0.7778645   0.8363661   0.7950330  )

     number of k points=    32
                       cart. coord. in units 2pi/alat
        k(    1) = (   0.1246139   0.1268917   0.1289260), wk =   0.0625000
        k(    2) = (   0.1246139   0.1268917   0.3867780), wk =   0.0625000
        k(    3) = (   0.1246139   0.3806751   0.1289260), wk =   0.0625000
        k(    4) = (   0.1246139   0.3806751   0.3867780), wk =   0.0625000
        k(    5) = (   0.3738418   0.1268917   0.1289260), wk =   0.0625000
        k(    6) = (   0.3738418   0.1268917   0.3867780), wk =   0.0625000
        k(    7) = (   0.3738418   0.3806751   0.1289260), wk =   0.0625000
        k(    8) = (   0.3738418   0.3806751   0.3867780), wk =   0.0625000
        k(    9) = (  -0.1246139  -0.1268917   0.1289260), wk =   0.0625000
        k(   10) = (  -0.1246139   0.1268917  -0.1289260), wk =   0.0625000
        k(   11) = (   0.1246139  -0.1268917  -0.1289260), wk =   0.0625000
        k(   12) = (  -0.1246139  -0.1268917   0.3867780), wk =   0.0625000
        k(   13) = (  -0.1246139   0.1268917  -0.3867780), wk =   0.0625000
        k(   14) = (   0.1246139  -0.1268917  -0.3867780), wk =   0.0625000
        k(   15) = (  -0.1246139  -0.3806751   0.1289260), wk =   0.0625000
        k(   16) = (  -0.1246139   0.3806751  -0.1289260), wk =   0.0625000
        k(   17) = (   0.1246139  -0.3806751  -0.1289260), wk =   0.0625000
        k(   18) = (  -0.1246139  -0.3806751   0.3867780), wk =   0.0625000
        k(   19) = (  -0.1246139   0.3806751  -0.3867780), wk =   0.0625000
        k(   20) = (   0.1246139  -0.3806751  -0.3867780), wk =   0.0625000
        k(   21) = (  -0.3738418  -0.1268917   0.1289260), wk =   0.0625000
        k(   22) = (  -0.3738418   0.1268917  -0.1289260), wk =   0.0625000
        k(   23) = (   0.3738418  -0.1268917  -0.1289260), wk =   0.0625000
        k(   24) = (  -0.3738418  -0.1268917   0.3867780), wk =   0.0625000
        k(   25) = (  -0.3738418   0.1268917  -0.3867780), wk =   0.0625000
        k(   26) = (   0.3738418  -0.1268917  -0.3867780), wk =   0.0625000
        k(   27) = (  -0.3738418  -0.3806751   0.1289260), wk =   0.0625000
        k(   28) = (  -0.3738418   0.3806751  -0.1289260), wk =   0.0625000
        k(   29) = (   0.3738418  -0.3806751  -0.1289260), wk =   0.0625000
        k(   30) = (  -0.3738418  -0.3806751   0.3867780), wk =   0.0625000
        k(   31) = (  -0.3738418   0.3806751  -0.3867780), wk =   0.0625000
        k(   32) = (   0.3738418  -0.3806751  -0.3867780), wk =   0.0625000

     Dense  grid:  2397207 G-vectors     FFT dimensions: ( 180, 180, 180)

     Estimated max dynamical RAM per process >       3.09 GB

     Estimated total dynamical RAM >      99.04 GB

     Initial potential from superposition of free atoms

     starting charge  399.97850, renormalised to  400.00000
     Starting wfcs are  280 randomized atomic wfcs
     Checking if some PAW data can be deallocated... 

     total cpu time spent up to now is      962.9 secs

     Self-consistent Calculation

     iteration #  1     ecut=   120.00 Ry     beta= 0.70
     Davidson diagonalization with overlap
     ethr =  1.00E-02,  avg # of iterations =  2.0

     total cpu time spent up to now is     2671.1 secs

     total energy              =  -16489.36615587 Ry
     Harris-Foulkes estimate   =  -16492.77243886 Ry
     estimated scf accuracy    <       5.71256383 Ry

     iteration #  2     ecut=   120.00 Ry     beta= 0.70
     Davidson diagonalization with overlap
     ethr =  1.43E-03,  avg # of iterations =  3.0

     total cpu time spent up to now is     5139.4 secs

     total energy              =  -16490.60793021 Ry
     Harris-Foulkes estimate   =  -16491.84610829 Ry
     estimated scf accuracy    <       2.20127601 Ry

     iteration #  3     ecut=   120.00 Ry     beta= 0.70
     Davidson diagonalization with overlap
     ethr =  5.50E-04,  avg # of iterations =  3.0

     total cpu time spent up to now is     7121.6 secs

     total energy              =  -16491.12819133 Ry
     Harris-Foulkes estimate   =  -16491.17169713 Ry
     estimated scf accuracy    <       0.10069126 Ry

     iteration #  4     ecut=   120.00 Ry     beta= 0.70
     Davidson diagonalization with overlap
     ethr =  2.52E-05,  avg # of iterations =  3.0

     total cpu time spent up to now is     9444.7 secs

     total energy              =  -16491.15276401 Ry
     Harris-Foulkes estimate   =  -16491.16284013 Ry
     estimated scf accuracy    <       0.01848076 Ry

     iteration #  5     ecut=   120.00 Ry     beta= 0.70
     Davidson diagonalization with overlap
     ethr =  4.62E-06,  avg # of iterations =  2.4

     total cpu time spent up to now is    11573.2 secs

     total energy              =  -16491.15658878 Ry
     Harris-Foulkes estimate   =  -16491.15732384 Ry
     estimated scf accuracy    <       0.00132119 Ry

     iteration #  6     ecut=   120.00 Ry     beta= 0.70
     Davidson diagonalization with overlap
     ethr =  3.30E-07,  avg # of iterations =  3.0

     total cpu time spent up to now is    14118.8 secs

     total energy              =  -16491.15694668 Ry
     Harris-Foulkes estimate   =  -16491.15738710 Ry
     estimated scf accuracy    <       0.00102774 Ry

     iteration #  7     ecut=   120.00 Ry     beta= 0.70
     Davidson diagonalization with overlap
     ethr =  2.57E-07,  avg # of iterations =  2.4

     total cpu time spent up to now is    16035.7 secs

     total energy              =  -16491.15715982 Ry
     Harris-Foulkes estimate   =  -16491.15717682 Ry
     estimated scf accuracy    <       0.00004486 Ry

     iteration #  8     ecut=   120.00 Ry     beta= 0.70
     Davidson diagonalization with overlap
     ethr =  1.12E-08,  avg # of iterations =  3.0

     total cpu time spent up to now is    18504.1 secs

     total energy              =  -16491.15717423 Ry
     Harris-Foulkes estimate   =  -16491.15717747 Ry
     estimated scf accuracy    <       0.00000775 Ry

     iteration #  9     ecut=   120.00 Ry     beta= 0.70
     Davidson diagonalization with overlap
     ethr =  1.94E-09,  avg # of iterations =  3.0

     total cpu time spent up to now is    20485.1 secs

     total energy              =  -16491.15717596 Ry
     Harris-Foulkes estimate   =  -16491.15717646 Ry
     estimated scf accuracy    <       0.00000102 Ry

     iteration # 10     ecut=   120.00 Ry     beta= 0.70
     Davidson diagonalization with overlap
     ethr =  2.56E-10,  avg # of iterations =  3.7

     total cpu time spent up to now is    22524.6 secs

     total energy              =  -16491.15717623 Ry
     Harris-Foulkes estimate   =  -16491.15717634 Ry
     estimated scf accuracy    <       0.00000023 Ry

     iteration # 11     ecut=   120.00 Ry     beta= 0.70
     Davidson diagonalization with overlap
     ethr =  5.70E-11,  avg # of iterations =  3.2

     total cpu time spent up to now is    24414.4 secs

     End of self-consistent calculation

          k = 0.1246 0.1269 0.1289 (299621 PWs)   bands (ev):

   -17.5019 -17.4866 -17.4503 -17.4286 -17.4263 -17.4258 -17.4193 -17.4168
   -14.2919 -14.2858 -14.2833 -14.2794 -14.2748 -14.2736 -14.2727 -14.2711
   -14.2674 -14.2663 -14.2660 -14.2611 -14.2596 -14.2574 -14.2523 -14.2520
   -14.2493 -14.2436 -14.2434 -14.2428 -14.2424 -14.2418 -14.2415 -14.2405
   -14.2378 -14.2348 -14.2336 -14.2329 -14.2327 -14.2319 -14.2303 -14.2292
   -14.2282 -14.2273 -14.2249 -14.2237 -14.2195 -14.2177 -14.2145 -14.2067
   -10.4872 -10.4673 -10.4583 -10.4487 -10.4438 -10.4313 -10.4188 -10.4128
    -9.6854  -9.5203  -9.5182  -9.5012  -9.3562  -9.3443  -9.3331  -9.2968
    -9.2810  -9.2671  -9.2453  -9.2364  -9.2284  -9.1930  -9.1821  -9.1754
    -9.1614  -9.1504  -9.1145  -9.0822  -9.0296  -9.0081  -8.9952  -8.9740
    -6.9671  -6.9506  -6.9459  -6.9414  -6.9371  -6.9224  -6.9131  -6.9082
    -6.8996  -6.8671  -6.8209  -6.8092  -6.8014  -6.7900  -6.7773  -6.7740
    -5.8926  -5.4787  -5.4456  -5.4382  -5.0530  -5.0413  -5.0006  -4.8460
    -4.8276  -4.8217  -4.8040  -4.7959  -4.7931  -4.7723  -4.7665  -4.5739
    -2.7961  -2.7768  -2.7666  -2.7614  -2.7556  -2.7520  -2.7402  -2.7354
    -2.7298  -2.7200  -2.7134  -2.7033  -2.7019  -2.6956  -2.6911  -2.6840
    -0.8772  -0.8301  -0.8142  -0.7923  -0.7663  -0.7440  -0.7361  -0.7150
    -0.6543  -0.6027  -0.5933  -0.5528   0.2238   0.2940   0.2996   0.3082
     0.4017   0.4246   0.4336   0.4671   0.4898   0.5458   0.5724   0.5803
     0.6049   0.7277   0.7533   0.7786   0.7984   0.8163   0.8771   0.9122
     0.9228   0.9415   0.9524   0.9611   0.9815   1.0037   1.0237   1.0251
     1.0469   1.0808   1.0985   1.1209   1.1359   1.1473   1.1764   1.1823
     1.2148   1.2208   1.2302   1.2443   1.2507   1.2695   1.2846   1.3106
     1.3218   1.3526   1.3733   1.4181   1.4661   1.4730   1.4911   1.5658
     1.5943   1.6215   1.6724   1.6807   1.7161   1.7780   1.8651   2.0492

          k = 0.1246 0.1269 0.3868 (299667 PWs)   bands (ev):

   -17.5019 -17.4866 -17.4503 -17.4286 -17.4262 -17.4258 -17.4193 -17.4168
   -14.2910 -14.2844 -14.2828 -14.2783 -14.2756 -14.2752 -14.2725 -14.2690
   -14.2684 -14.2672 -14.2652 -14.2620 -14.2600 -14.2570 -14.2523 -14.2520
   -14.2504 -14.2442 -14.2434 -14.2428 -14.2424 -14.2418 -14.2416 -14.2405
   -14.2378 -14.2348 -14.2337 -14.2328 -14.2327 -14.2319 -14.2303 -14.2292
   -14.2282 -14.2273 -14.2249 -14.2237 -14.2195 -14.2177 -14.2145 -14.2067
   -10.4864 -10.4670 -10.4567 -10.4497 -10.4445 -10.4317 -10.4190 -10.4131
    -9.6498  -9.5846  -9.4858  -9.4721  -9.4228  -9.4116  -9.3262  -9.3014
    -9.2802  -9.2518  -9.2181  -9.2074  -9.2036  -9.1904  -9.1766  -9.1679
    -9.1434  -9.1195  -9.1091  -9.0900  -9.0579  -9.0363  -8.9963  -8.9778
    -6.9718  -6.9512  -6.9440  -6.9379  -6.9345  -6.9233  -6.9121  -6.9102
    -6.8972  -6.8735  -6.8154  -6.8031  -6.7940  -6.7911  -6.7841  -6.7799
    -5.7719  -5.5871  -5.3632  -5.3246  -5.1832  -5.1444  -4.9608  -4.8633
    -4.8344  -4.8246  -4.7996  -4.7958  -4.7886  -4.7763  -4.7589  -4.6913
    -2.7946  -2.7683  -2.7648  -2.7625  -2.7523  -2.7467  -2.7412  -2.7387
    -2.7302  -2.7194  -2.7150  -2.7116  -2.7002  -2.6959  -2.6932  -2.6845
    -0.8003  -0.7847  -0.7524  -0.7143  -0.7100  -0.6992  -0.6471  -0.6386
    -0.4762  -0.4020  -0.3672  -0.2672   0.0504   0.1227   0.1458   0.2325
     0.3406   0.3538   0.3857   0.4094   0.4365   0.4543   0.4654   0.4916
     0.5043   0.5435   0.7507   0.7674   0.7842   0.8148   0.8719   0.8981
     0.9085   0.9250   0.9456   0.9706   0.9873   1.0127   1.0307   1.0470
     1.0640   1.0723   1.0859   1.1005   1.1182   1.1363   1.1435   1.1729
     1.2005   1.2094   1.2314   1.2346   1.2561   1.2716   1.2817   1.3100
     1.3513   1.3639   1.3823   1.4144   1.4347   1.4638   1.4686   1.5519
     1.5903   1.6199   1.6383   1.6704   1.6769   1.6885   1.7535   1.8526

          k = 0.1246 0.3807 0.1289 (299642 PWs)   bands (ev):

   -17.5019 -17.4866 -17.4503 -17.4286 -17.4263 -17.4258 -17.4193 -17.4168
   -14.2918 -14.2851 -14.2832 -14.2789 -14.2740 -14.2730 -14.2716 -14.2712
   -14.2677 -14.2671 -14.2661 -14.2614 -14.2602 -14.2583 -14.2522 -14.2520
   -14.2495 -14.2442 -14.2434 -14.2428 -14.2424 -14.2418 -14.2416 -14.2405
   -14.2378 -14.2348 -14.2336 -14.2329 -14.2327 -14.2319 -14.2303 -14.2292
   -14.2282 -14.2273 -14.2249 -14.2237 -14.2195 -14.2177 -14.2145 -14.2067
   -10.4859 -10.4657 -10.4565 -10.4492 -10.4437 -10.4323 -10.4206 -10.4149
    -9.6438  -9.5705  -9.4947  -9.4842  -9.4096  -9.4014  -9.3303  -9.2945
    -9.2818  -9.2770  -9.2468  -9.2374  -9.2310  -9.1798  -9.1744  -9.1553
    -9.1298  -9.0965  -9.0857  -9.0706  -9.0429  -9.0272  -9.0144  -8.9998
    -6.9664  -6.9502  -6.9452  -6.9421  -6.9369  -6.9228  -6.9133  -6.9092
    -6.8991  -6.8666  -6.8203  -6.8091  -6.8019  -6.7886  -6.7794  -6.7747
    -5.7719  -5.5826  -5.3665  -5.3315  -5.1896  -5.1432  -4.9476  -4.8684
    -4.8337  -4.8157  -4.8059  -4.7981  -4.7866  -4.7764  -4.7598  -4.6832
    -2.7875  -2.7731  -2.7671  -2.7569  -2.7528  -2.7463  -2.7417  -2.7391
    -2.7322  -2.7238  -2.7163  -2.7137  -2.7017  -2.6933  -2.6920  -2.6837
    -0.8507  -0.8146  -0.7810  -0.7758  -0.7493  -0.7292  -0.6450  -0.5843
    -0.4283  -0.3861  -0.2718  -0.2251   0.0934   0.1450   0.2668   0.2942
     0.3238   0.3460   0.3511   0.3727   0.4515   0.4599   0.4768   0.5512
     0.5580   0.6251   0.6290   0.6437   0.7254   0.8089   0.8208   0.8344
     0.8881   0.9218   0.9296   0.9537   0.9765   0.9832   0.9986   1.0207
     1.0276   1.0496   1.0980   1.1206   1.1413   1.1546   1.1979   1.2073
     1.2197   1.2253   1.2440   1.2596   1.2671   1.2814   1.3119   1.3226
     1.3516   1.3589   1.4087   1.4217   1.4703   1.4802   1.4994   1.5268
     1.5617   1.5712   1.5790   1.5991   1.6231   1.6581   1.8087   1.8589

          k = 0.1246 0.3807 0.3868 (299633 PWs)   bands (ev):

   -17.5019 -17.4866 -17.4502 -17.4286 -17.4263 -17.4258 -17.4193 -17.4168
   -14.2909 -14.2838 -14.2825 -14.2782 -14.2752 -14.2740 -14.2713 -14.2692
   -14.2679 -14.2675 -14.2662 -14.2629 -14.2601 -14.2581 -14.2522 -14.2520
   -14.2505 -14.2449 -14.2434 -14.2429 -14.2424 -14.2418 -14.2416 -14.2405
   -14.2378 -14.2348 -14.2337 -14.2329 -14.2327 -14.2319 -14.2303 -14.2292
   -14.2282 -14.2273 -14.2249 -14.2237 -14.2195 -14.2177 -14.2145 -14.2067
   -10.4854 -10.4649 -10.4558 -10.4497 -10.4438 -10.4326 -10.4210 -10.4154
    -9.6111  -9.5506  -9.5359  -9.4812  -9.4563  -9.3985  -9.3766  -9.3349
    -9.2853  -9.2527  -9.2080  -9.2052  -9.1953  -9.1670  -9.1456  -9.1431
    -9.1178  -9.1118  -9.1062  -9.0686  -9.0626  -9.0402  -9.0234  -9.0019
    -6.9712  -6.9509  -6.9429  -6.9391  -6.9346  -6.9237  -6.9126  -6.9104
    -6.8967  -6.8734  -6.8153  -6.8030  -6.7940  -6.7908  -6.7846  -6.7803
    -5.6543  -5.4736  -5.4652  -5.2863  -5.2541  -5.0894  -5.0796  -4.9421
    -4.8348  -4.8165  -4.8075  -4.7987  -4.7862  -4.7794  -4.7634  -4.7454
    -2.7878  -2.7745  -2.7710  -2.7575  -2.7497  -2.7465  -2.7411  -2.7361
    -2.7305  -2.7246  -2.7151  -2.7111  -2.7001  -2.6951  -2.6918  -2.6833
    -0.7899  -0.7344  -0.7278  -0.6751  -0.5319  -0.4539  -0.4322  -0.3867
    -0.3067  -0.2984  -0.2872  -0.2766   0.0677   0.1069   0.1357   0.1455
     0.2143   0.2565   0.2785   0.3362   0.3794   0.4134   0.4257   0.4364
     0.5175   0.5416   0.6155   0.6312   0.7132   0.7307   0.8025   0.8336
     0.8686   0.8903   0.9033   0.9461   0.9605   0.9724   0.9994   1.0127
     1.0259   1.0368   1.0514   1.0617   1.1080   1.1192   1.1332   1.1558
     1.2054   1.2282   1.2497   1.2531   1.2644   1.2874   1.3094   1.3234
     1.3784   1.3947   1.4047   1.4399   1.4522   1.4751   1.4936   1.4995
     1.5123   1.5406   1.5800   1.5889   1.6189   1.6475   1.6686   1.7023

          k = 0.3738 0.1269 0.1289 (299661 PWs)   bands (ev):

   -17.5019 -17.4866 -17.4503 -17.4286 -17.4263 -17.4258 -17.4193 -17.4168
   -14.2909 -14.2854 -14.2827 -14.2789 -14.2762 -14.2741 -14.2729 -14.2706
   -14.2670 -14.2659 -14.2650 -14.2625 -14.2595 -14.2579 -14.2522 -14.2520
   -14.2500 -14.2437 -14.2434 -14.2428 -14.2424 -14.2418 -14.2416 -14.2405
   -14.2378 -14.2348 -14.2336 -14.2329 -14.2327 -14.2319 -14.2302 -14.2292
   -14.2282 -14.2273 -14.2249 -14.2237 -14.2195 -14.2177 -14.2145 -14.2067
   -10.4869 -10.4664 -10.4587 -10.4481 -10.4440 -10.4306 -10.4197 -10.4137
    -9.6442  -9.5874  -9.4869  -9.4765  -9.4164  -9.3999  -9.3302  -9.2983
    -9.2809  -9.2726  -9.2411  -9.2334  -9.1941  -9.1854  -9.1727  -9.1541
    -9.1252  -9.1149  -9.1045  -9.0876  -9.0519  -9.0235  -9.0149  -8.9833
    -6.9667  -6.9502  -6.9454  -6.9412  -6.9367  -6.9223  -6.9131  -6.9093
    -6.8994  -6.8672  -6.8208  -6.8091  -6.8020  -6.7885  -6.7772  -6.7756
    -5.7810  -5.6089  -5.3422  -5.3362  -5.1779  -5.1677  -4.9207  -4.8643
    -4.8360  -4.8121  -4.8050  -4.7946  -4.7875  -4.7702  -4.7658  -4.6781
    -2.7939  -2.7761  -2.7683  -2.7575  -2.7544  -2.7496  -2.7388  -2.7360
    -2.7300  -2.7207  -2.7091  -2.7055  -2.7027  -2.6989  -2.6957  -2.6846
    -0.8568  -0.8159  -0.7997  -0.7659  -0.7383  -0.7089  -0.6275  -0.5968
    -0.4459  -0.3795  -0.2955  -0.2253   0.0920   0.1618   0.2653   0.2866
     0.3147   0.3284   0.3490   0.3642   0.4287   0.4403   0.4537   0.5196
     0.5483   0.6077   0.6215   0.6646   0.6985   0.7871   0.8191   0.8218
     0.8717   0.8948   0.9339   0.9697   0.9840   1.0203   1.0258   1.0470
     1.0601   1.0719   1.0963   1.1120   1.1277   1.1504   1.1979   1.2186
     1.2293   1.2368   1.2441   1.2537   1.2798   1.2842   1.3001   1.3109
     1.3285   1.3469   1.3907   1.4216   1.4571   1.4728   1.5009   1.5505
     1.5701   1.5874   1.5979   1.6042   1.6348   1.6453   1.8851   1.9075

          k = 0.3738 0.1269 0.3868 (299680 PWs)   bands (ev):

   -17.5019 -17.4866 -17.4503 -17.4286 -17.4263 -17.4258 -17.4193 -17.4168
   -14.2899 -14.2842 -14.2810 -14.2791 -14.2770 -14.2756 -14.2728 -14.2684
   -14.2681 -14.2662 -14.2648 -14.2620 -14.2616 -14.2572 -14.2522 -14.2520
   -14.2511 -14.2443 -14.2434 -14.2428 -14.2424 -14.2418 -14.2416 -14.2405
   -14.2378 -14.2348 -14.2336 -14.2328 -14.2327 -14.2319 -14.2303 -14.2292
   -14.2282 -14.2273 -14.2249 -14.2237 -14.2195 -14.2177 -14.2145 -14.2067
   -10.4861 -10.4664 -10.4572 -10.4490 -10.4446 -10.4309 -10.4200 -10.4141
    -9.6104  -9.5520  -9.5476  -9.4881  -9.4517  -9.3963  -9.3802  -9.3433
    -9.2419  -9.2203  -9.2061  -9.1974  -9.1877  -9.1800  -9.1623  -9.1501
    -9.1338  -9.1266  -9.1104  -9.0786  -9.0650  -9.0354  -9.0215  -8.9941
    -6.9716  -6.9505  -6.9431  -6.9382  -6.9347  -6.9232  -6.9123  -6.9107
    -6.8969  -6.8735  -6.8154  -6.8032  -6.7947  -6.7900  -6.7842  -6.7804
    -5.6632  -5.4920  -5.4817  -5.3106  -5.2263  -5.0776  -5.0514  -4.9331
    -4.8345  -4.8131  -4.8049  -4.7937  -4.7914  -4.7784  -4.7659  -4.7461
    -2.7928  -2.7683  -2.7653  -2.7589  -2.7515  -2.7465  -2.7405  -2.7380
    -2.7310  -2.7206  -2.7126  -2.7086  -2.7045  -2.6965  -2.6955  -2.6864
    -0.7823  -0.7375  -0.7187  -0.6750  -0.5181  -0.4527  -0.4198  -0.3927
    -0.3472  -0.2988  -0.2860  -0.2636   0.0646   0.0709   0.1217   0.1555
     0.2172   0.2329   0.2521   0.3131   0.4056   0.4112   0.4224   0.4322
     0.5240   0.5696   0.6220   0.6583   0.6753   0.7158   0.7327   0.7827
     0.8137   0.8658   0.8745   0.9034   0.9205   0.9704   1.0148   1.0301
     1.0398   1.0577   1.0620   1.0808   1.1211   1.1497   1.1716   1.1783
     1.2218   1.2542   1.2579   1.2692   1.2825   1.3049   1.3135   1.3358
     1.3564   1.3791   1.3938   1.4172   1.4552   1.4717   1.4815   1.5343
     1.5491   1.5603   1.5851   1.5881   1.6291   1.6549   1.7028   1.7310

          k = 0.3738 0.3807 0.1289 (299583 PWs)   bands (ev):

   -17.5019 -17.4866 -17.4503 -17.4286 -17.4263 -17.4258 -17.4193 -17.4168
   -14.2909 -14.2847 -14.2827 -14.2784 -14.2758 -14.2730 -14.2719 -14.2707
   -14.2668 -14.2663 -14.2661 -14.2627 -14.2600 -14.2590 -14.2522 -14.2520
   -14.2501 -14.2442 -14.2434 -14.2428 -14.2424 -14.2418 -14.2416 -14.2405
   -14.2378 -14.2348 -14.2336 -14.2329 -14.2327 -14.2319 -14.2303 -14.2292
   -14.2282 -14.2273 -14.2249 -14.2237 -14.2195 -14.2177 -14.2145 -14.2067
   -10.4861 -10.4670 -10.4549 -10.4486 -10.4443 -10.4328 -10.4204 -10.4144
    -9.6019  -9.5668  -9.5465  -9.4552  -9.4480  -9.3969  -9.3784  -9.3312
    -9.2813  -9.2712  -9.2467  -9.2387  -9.1849  -9.1418  -9.1361  -9.1249
    -9.1118  -9.1046  -9.0945  -9.0803  -9.0529  -9.0418  -9.0361  -9.0070
    -6.9662  -6.9503  -6.9457  -6.9410  -6.9368  -6.9225  -6.9139  -6.9091
    -6.8982  -6.8668  -6.8202  -6.8090  -6.8015  -6.7892  -6.7786  -6.7761
    -5.6637  -5.5011  -5.4719  -5.3154  -5.2371  -5.0659  -5.0379  -4.9442
    -4.8370  -4.8162  -4.8056  -4.7965  -4.7904  -4.7731  -4.7634  -4.7375
    -2.7863  -2.7719  -2.7668  -2.7562  -2.7501  -2.7447  -2.7399  -2.7392
    -2.7319  -2.7244  -2.7162  -2.7141  -2.7030  -2.6971  -2.6944  -2.6833
    -0.8252  -0.7894  -0.7522  -0.7053  -0.4946  -0.4685  -0.4458  -0.3409
    -0.3205  -0.2976  -0.2687  -0.2282   0.0672   0.1333   0.1494   0.2217
     0.2879   0.2949   0.3227   0.3342   0.3505   0.3714   0.3868   0.4444
     0.5446   0.5727   0.5944   0.6055   0.7113   0.7228   0.7374   0.7633
     0.7839   0.8097   0.8655   0.8842   0.9055   0.9285   0.9621   0.9712
     1.0178   1.0576   1.0812   1.1130   1.1470   1.1782   1.1884   1.1966
     1.2187   1.2311   1.2475   1.2669   1.2771   1.3000   1.3192   1.3565
     1.3965   1.4178   1.4293   1.4329   1.4607   1.4731   1.4876   1.4953
     1.5299   1.5390   1.5527   1.5602   1.5748   1.6571   1.6762   1.6969

          k = 0.3738 0.3807 0.3868 (299636 PWs)   bands (ev):

   -17.5019 -17.4866 -17.4503 -17.4286 -17.4263 -17.4258 -17.4193 -17.4168
   -14.2899 -14.2834 -14.2809 -14.2790 -14.2770 -14.2741 -14.2717 -14.2681
   -14.2677 -14.2668 -14.2659 -14.2629 -14.2618 -14.2582 -14.2522 -14.2520
   -14.2511 -14.2449 -14.2434 -14.2429 -14.2424 -14.2418 -14.2416 -14.2405
   -14.2378 -14.2348 -14.2336 -14.2329 -14.2327 -14.2319 -14.2303 -14.2292
   -14.2282 -14.2273 -14.2249 -14.2237 -14.2195 -14.2177 -14.2145 -14.2067
   -10.4856 -10.4662 -10.4543 -10.4491 -10.4444 -10.4332 -10.4208 -10.4149
    -9.5712  -9.5324  -9.5170  -9.5101  -9.4671  -9.4512  -9.4250  -9.3846
    -9.2432  -9.2138  -9.1936  -9.1866  -9.1781  -9.1525  -9.1412  -9.1364
    -9.1206  -9.1119  -9.0923  -9.0775  -9.0606  -9.0536  -9.0457  -9.0138
    -6.9711  -6.9508  -6.9425  -6.9386  -6.9344  -6.9237  -6.9125  -6.9104
    -6.8961  -6.8735  -6.8153  -6.8031  -6.7943  -6.7905  -6.7845  -6.7807
    -5.5503  -5.3864  -5.3746  -5.3573  -5.2126  -5.2068  -5.1784  -5.0536
    -4.8363  -4.8173  -4.8061  -4.7963  -4.7906  -4.7818  -4.7649  -4.7581
    -2.7869  -2.7738  -2.7711  -2.7539  -2.7485  -2.7459  -2.7411  -2.7371
    -2.7307  -2.7243  -2.7137  -2.7115  -2.7024  -2.6951  -2.6939  -2.6842
    -0.5423  -0.5202  -0.4901  -0.4432  -0.4268  -0.3701  -0.3596  -0.3399
    -0.3304  -0.3042  -0.2966  -0.2092   0.0665   0.0835   0.1107   0.1307
     0.1845   0.2106   0.2247   0.2309   0.2811   0.2905   0.3014   0.3622
     0.5924   0.6051   0.6215   0.6440   0.6771   0.7038   0.7311   0.7550
     0.7691   0.7961   0.8396   0.8597   0.8739   0.9021   0.9091   0.9259
     0.9512   0.9767   0.9931   1.0102   1.0405   1.0532   1.0794   1.0917
     1.2393   1.2660   1.2793   1.2861   1.3030   1.3178   1.3304   1.3605
     1.4040   1.4076   1.4285   1.4411   1.4513   1.4708   1.4813   1.4980
     1.5101   1.5381   1.5535   1.5615   1.5691   1.5852   1.5937   1.6007

          k =-0.1246-0.1269 0.1289 (299621 PWs)   bands (ev):

   -17.5019 -17.4866 -17.4503 -17.4286 -17.4263 -17.4258 -17.4193 -17.4168
   -14.2919 -14.2858 -14.2833 -14.2794 -14.2748 -14.2736 -14.2727 -14.2711
   -14.2674 -14.2663 -14.2660 -14.2611 -14.2596 -14.2574 -14.2523 -14.2520
   -14.2493 -14.2436 -14.2434 -14.2428 -14.2424 -14.2418 -14.2415 -14.2405
   -14.2378 -14.2348 -14.2336 -14.2329 -14.2327 -14.2319 -14.2303 -14.2292
   -14.2282 -14.2273 -14.2249 -14.2237 -14.2195 -14.2177 -14.2145 -14.2067
   -10.4872 -10.4673 -10.4583 -10.4488 -10.4438 -10.4313 -10.4188 -10.4128
    -9.6852  -9.5217  -9.5168  -9.5019  -9.3562  -9.3433  -9.3334  -9.2976
    -9.2786  -9.2685  -9.2443  -9.2371  -9.2295  -9.1937  -9.1811  -9.1754
    -9.1614  -9.1507  -9.1137  -9.0825  -9.0300  -9.0082  -8.9951  -8.9740
    -6.9671  -6.9506  -6.9458  -6.9415  -6.9372  -6.9224  -6.9133  -6.9082
    -6.8992  -6.8672  -6.8208  -6.8092  -6.8014  -6.7900  -6.7774  -6.7740
    -5.8926  -5.4787  -5.4455  -5.4383  -5.0529  -5.0413  -5.0006  -4.8460
    -4.8278  -4.8217  -4.8040  -4.7959  -4.7932  -4.7723  -4.7665  -4.5737
    -2.7961  -2.7765  -2.7666  -2.7614  -2.7552  -2.7520  -2.7406  -2.7351
    -2.7295  -2.7200  -2.7134  -2.7047  -2.7012  -2.6958  -2.6906  -2.6846
    -0.8776  -0.8296  -0.8152  -0.7966  -0.7645  -0.7466  -0.7308  -0.7140
    -0.6539  -0.6030  -0.5932  -0.5526   0.2242   0.2948   0.2988   0.3074
     0.4001   0.4233   0.4365   0.4665   0.4893   0.5457   0.5722   0.5825
     0.6049   0.7249   0.7517   0.7850   0.7974   0.8140   0.8802   0.9129
     0.9193   0.9411   0.9523   0.9717   0.9813   0.9944   1.0182   1.0277
     1.0441   1.0849   1.1001   1.1217   1.1341   1.1451   1.1736   1.1873
     1.2097   1.2213   1.2348   1.2451   1.2526   1.2717   1.2836   1.3051
     1.3221   1.3541   1.3715   1.4197   1.4648   1.4756   1.4904   1.5650
     1.5936   1.6218   1.6728   1.6801   1.7168   1.7774   1.8651   2.0498

          k =-0.1246 0.1269-0.1289 (299621 PWs)   bands (ev):

   -17.5019 -17.4866 -17.4503 -17.4286 -17.4263 -17.4258 -17.4193 -17.4168
   -14.2919 -14.2858 -14.2833 -14.2794 -14.2748 -14.2736 -14.2727 -14.2711
   -14.2674 -14.2663 -14.2660 -14.2611 -14.2596 -14.2574 -14.2523 -14.2520
   -14.2493 -14.2436 -14.2434 -14.2428 -14.2424 -14.2418 -14.2415 -14.2405
   -14.2378 -14.2348 -14.2336 -14.2329 -14.2327 -14.2319 -14.2303 -14.2292
   -14.2282 -14.2273 -14.2249 -14.2237 -14.2195 -14.2177 -14.2145 -14.2067
   -10.4874 -10.4683 -10.4575 -10.4488 -10.4439 -10.4318 -10.4182 -10.4121
    -9.6900  -9.5181  -9.5116  -9.4946  -9.3670  -9.3527  -9.3351  -9.2921
    -9.2761  -9.2704  -9.2509  -9.2303  -9.2287  -9.1939  -9.1816  -9.1761
    -9.1582  -9.1472  -9.1132  -9.0838  -9.0317  -9.0096  -8.9940  -8.9729
    -6.9670  -6.9505  -6.9453  -6.9419  -6.9370  -6.9223  -6.9133  -6.9088
    -6.8994  -6.8672  -6.8208  -6.8092  -6.8019  -6.7889  -6.7780  -6.7739
    -5.8928  -5.4782  -5.4438  -5.4381  -5.0525  -5.0452  -5.0065  -4.8450
    -4.8273  -4.8198  -4.8026  -4.7947  -4.7927  -4.7702  -4.7649  -4.5761
    -2.7964  -2.7772  -2.7647  -2.7625  -2.7554  -2.7531  -2.7395  -2.7345
    -2.7293  -2.7212  -2.7144  -2.7053  -2.7013  -2.6955  -2.6894  -2.6838
    -0.8943  -0.8658  -0.8010  -0.7774  -0.7662  -0.7394  -0.7266  -0.7059
    -0.6565  -0.6029  -0.5911  -0.5348   0.2222   0.2876   0.3116   0.3153
     0.3809   0.4085   0.4411   0.4543   0.4770   0.5146   0.5802   0.5891
     0.6389   0.7316   0.7472   0.7724   0.7822   0.8225   0.8697   0.8796
     0.9123   0.9375   0.9562   0.9738   1.0106   1.0254   1.0341   1.0568
     1.0675   1.0835   1.0982   1.1187   1.1287   1.1464   1.1553   1.1809
     1.2025   1.2170   1.2218   1.2334   1.2455   1.2767   1.2862   1.3072
     1.3390   1.3535   1.3676   1.4035   1.4622   1.4793   1.5008   1.5680
     1.5928   1.6203   1.6382   1.6697   1.7692   1.7775   1.8583   2.0733

          k = 0.1246-0.1269-0.1289 (299621 PWs)   bands (ev):

   -17.5019 -17.4866 -17.4503 -17.4286 -17.4263 -17.4258 -17.4193 -17.4168
   -14.2919 -14.2858 -14.2833 -14.2794 -14.2748 -14.2736 -14.2727 -14.2711
   -14.2675 -14.2663 -14.2660 -14.2611 -14.2596 -14.2574 -14.2523 -14.2520
   -14.2493 -14.2436 -14.2434 -14.2428 -14.2424 -14.2418 -14.2415 -14.2405
   -14.2378 -14.2348 -14.2336 -14.2329 -14.2327 -14.2319 -14.2303 -14.2292
   -14.2282 -14.2273 -14.2249 -14.2237 -14.2195 -14.2177 -14.2145 -14.2067
   -10.4874 -10.4683 -10.4575 -10.4487 -10.4439 -10.4318 -10.4182 -10.4121
    -9.6901  -9.5185  -9.5115  -9.4939  -9.3682  -9.3520  -9.3357  -9.2905
    -9.2751  -9.2711  -9.2513  -9.2358  -9.2251  -9.1936  -9.1822  -9.1748
    -9.1579  -9.1466  -9.1148  -9.0832  -9.0320  -9.0093  -8.9941  -8.9729
    -6.9670  -6.9503  -6.9454  -6.9419  -6.9370  -6.9223  -6.9131  -6.9088
    -6.8999  -6.8670  -6.8209  -6.8092  -6.8019  -6.7890  -6.7779  -6.7739
    -5.8929  -5.4782  -5.4437  -5.4379  -5.0528  -5.0452  -5.0066  -4.8450
    -4.8272  -4.8197  -4.8028  -4.7945  -4.7928  -4.7701  -4.7650  -4.5762
    -2.7963  -2.7774  -2.7649  -2.7622  -2.7556  -2.7532  -2.7400  -2.7343
    -2.7295  -2.7207  -2.7145  -2.7039  -2.7014  -2.6952  -2.6903  -2.6842
    -0.8952  -0.8663  -0.8010  -0.7761  -0.7633  -0.7421  -0.7275  -0.7043
    -0.6564  -0.6029  -0.5913  -0.5355   0.2227   0.2874   0.3124   0.3153
     0.3820   0.4046   0.4439   0.4557   0.4748   0.5136   0.5819   0.5874
     0.6375   0.7303   0.7515   0.7723   0.7851   0.8231   0.8691   0.8794
     0.9089   0.9359   0.9590   0.9712   1.0111   1.0208   1.0348   1.0605
     1.0670   1.0835   1.0988   1.1113   1.1335   1.1507   1.1584   1.1794
     1.2022   1.2123   1.2210   1.2371   1.2472   1.2743   1.2887   1.3013
     1.3455   1.3524   1.3676   1.4019   1.4627   1.4797   1.4997   1.5674
     1.5929   1.6216   1.6374   1.6692   1.7707   1.7759   1.8586   2.0735

          k =-0.1246-0.1269 0.3868 (299667 PWs)   bands (ev):

   -17.5019 -17.4866 -17.4503 -17.4286 -17.4262 -17.4258 -17.4193 -17.4168
   -14.2910 -14.2844 -14.2828 -14.2783 -14.2756 -14.2752 -14.2725 -14.2690
   -14.2684 -14.2672 -14.2652 -14.2620 -14.2600 -14.2570 -14.2523 -14.2520
   -14.2504 -14.2442 -14.2434 -14.2428 -14.2424 -14.2418 -14.2416 -14.2405
   -14.2378 -14.2348 -14.2337 -14.2328 -14.2327 -14.2319 -14.2303 -14.2292
   -14.2282 -14.2273 -14.2249 -14.2237 -14.2195 -14.2177 -14.2145 -14.2067
   -10.4864 -10.4670 -10.4567 -10.4497 -10.4445 -10.4317 -10.4191 -10.4131
    -9.6493  -9.5853  -9.4855  -9.4736  -9.4213  -9.4116  -9.3270  -9.3004
    -9.2805  -9.2517  -9.2176  -9.2075  -9.2047  -9.1905  -9.1773  -9.1646
    -9.1474  -9.1181  -9.1077  -9.0903  -9.0587  -9.0364  -8.9961  -8.9779
    -6.9718  -6.9512  -6.9439  -6.9379  -6.9347  -6.9233  -6.9124  -6.9101
    -6.8967  -6.8737  -6.8154  -6.8031  -6.7938  -6.7912  -6.7842  -6.7799
    -5.7718  -5.5872  -5.3632  -5.3246  -5.1832  -5.1444  -4.9606  -4.8637
    -4.8347  -4.8245  -4.7996  -4.7958  -4.7886  -4.7765  -4.7590  -4.6908
    -2.7946  -2.7680  -2.7646  -2.7627  -2.7518  -2.7477  -2.7404  -2.7388
    -2.7287  -2.7210  -2.7151  -2.7120  -2.6997  -2.6961  -2.6928  -2.6851
    -0.8011  -0.7824  -0.7540  -0.7184  -0.7141  -0.6919  -0.6478  -0.6388
    -0.4748  -0.4000  -0.3669  -0.2671   0.0492   0.1217   0.1453   0.2343
     0.3379   0.3549   0.3881   0.4098   0.4356   0.4507   0.4689   0.4927
     0.5018   0.5436   0.7508   0.7678   0.7848   0.8122   0.8719   0.8989
     0.9080   0.9293   0.9450   0.9717   0.9831   1.0130   1.0314   1.0450
     1.0613   1.0750   1.0885   1.0981   1.1171   1.1397   1.1455   1.1721
     1.2022   1.2101   1.2297   1.2342   1.2581   1.2716   1.2735   1.3115
     1.3499   1.3677   1.3820   1.4167   1.4377   1.4626   1.4667   1.5508
     1.5894   1.6185   1.6381   1.6725   1.6796   1.6857   1.7524   1.8538

          k =-0.1246 0.1269-0.3868 (299667 PWs)   bands (ev):

   -17.5019 -17.4866 -17.4503 -17.4286 -17.4262 -17.4258 -17.4193 -17.4168
   -14.2910 -14.2844 -14.2828 -14.2783 -14.2756 -14.2752 -14.2725 -14.2690
   -14.2684 -14.2672 -14.2652 -14.2620 -14.2600 -14.2570 -14.2523 -14.2520
   -14.2504 -14.2442 -14.2434 -14.2428 -14.2424 -14.2418 -14.2416 -14.2405
   -14.2378 -14.2348 -14.2337 -14.2328 -14.2327 -14.2319 -14.2303 -14.2292
   -14.2282 -14.2273 -14.2249 -14.2237 -14.2195 -14.2177 -14.2145 -14.2067
   -10.4866 -10.4679 -10.4559 -10.4497 -10.4448 -10.4323 -10.4185 -10.4124
    -9.6533  -9.5872  -9.4780  -9.4667  -9.4169  -9.4089  -9.3436  -9.3083
    -9.2808  -9.2511  -9.2148  -9.2065  -9.2019  -9.1933  -9.1786  -9.1618
    -9.1408  -9.1199  -9.1087  -9.0908  -9.0596  -9.0380  -8.9946  -8.9768
    -6.9717  -6.9510  -6.9437  -6.9383  -6.9349  -6.9231  -6.9126  -6.9104
    -6.8967  -6.8736  -6.8154  -6.8031  -6.7943  -6.7904  -6.7844  -6.7800
    -5.7710  -5.5854  -5.3637  -5.3263  -5.1851  -5.1476  -4.9580  -4.8583
    -4.8355  -4.8269  -4.7988  -4.7960  -4.7887  -4.7755  -4.7579  -4.6931
    -2.7948  -2.7689  -2.7643  -2.7611  -2.7527  -2.7463  -2.7405  -2.7393
    -2.7282  -2.7221  -2.7169  -2.7123  -2.7004  -2.6956  -2.6918  -2.6842
    -0.8484  -0.7909  -0.7409  -0.7073  -0.6889  -0.6809  -0.6434  -0.6284
    -0.4851  -0.3949  -0.3619  -0.2719   0.0433   0.1217   0.1468   0.2325
     0.3278   0.3532   0.3932   0.4117   0.4211   0.4553   0.4692   0.4746
     0.5001   0.5682   0.7616   0.7713   0.7852   0.8142   0.8209   0.8463
     0.9233   0.9434   0.9641   0.9813   0.9940   1.0239   1.0325   1.0578
     1.0611   1.0666   1.0802   1.0929   1.1090   1.1424   1.1600   1.1728
     1.1882   1.2089   1.2206   1.2401   1.2542   1.2623   1.2865   1.3437
     1.3634   1.3700   1.3833   1.4122   1.4311   1.4608   1.4713   1.5516
     1.5832   1.6147   1.6271   1.6437   1.6576   1.6768   1.8013   1.8850

          k = 0.1246-0.1269-0.3868 (299667 PWs)   bands (ev):

   -17.5019 -17.4866 -17.4503 -17.4286 -17.4262 -17.4258 -17.4193 -17.4168
   -14.2910 -14.2844 -14.2828 -14.2783 -14.2756 -14.2752 -14.2725 -14.2690
   -14.2684 -14.2672 -14.2652 -14.2620 -14.2600 -14.2570 -14.2523 -14.2520
   -14.2504 -14.2442 -14.2434 -14.2428 -14.2424 -14.2418 -14.2416 -14.2405
   -14.2378 -14.2348 -14.2337 -14.2328 -14.2327 -14.2319 -14.2303 -14.2292
   -14.2282 -14.2273 -14.2249 -14.2237 -14.2195 -14.2177 -14.2145 -14.2067
   -10.4866 -10.4679 -10.4559 -10.4497 -10.4447 -10.4323 -10.4185 -10.4124
    -9.6534  -9.5871  -9.4784  -9.4658  -9.4166  -9.4096  -9.3441  -9.3079
    -9.2801  -9.2517  -9.2149  -9.2079  -9.2005  -9.1942  -9.1782  -9.1602
    -9.1419  -9.1202  -9.1076  -9.0913  -9.0602  -9.0373  -8.9948  -8.9768
    -6.9718  -6.9509  -6.9438  -6.9383  -6.9347  -6.9232  -6.9125  -6.9103
    -6.8973  -6.8734  -6.8154  -6.8031  -6.7941  -6.7908  -6.7844  -6.7798
    -5.7712  -5.5852  -5.3635  -5.3260  -5.1852  -5.1479  -4.9584  -4.8580
    -4.8353  -4.8269  -4.7989  -4.7959  -4.7888  -4.7752  -4.7578  -4.6934
    -2.7948  -2.7692  -2.7647  -2.7605  -2.7527  -2.7462  -2.7417  -2.7395
    -2.7287  -2.7199  -2.7170  -2.7121  -2.6994  -2.6954  -2.6929  -2.6846
    -0.8495  -0.7895  -0.7422  -0.7050  -0.6900  -0.6795  -0.6458  -0.6281
    -0.4837  -0.3959  -0.3611  -0.2726   0.0436   0.1230   0.1454   0.2330
     0.3286   0.3555   0.3900   0.4128   0.4193   0.4530   0.4707   0.4728
     0.5026   0.5688   0.7648   0.7706   0.7799   0.8163   0.8191   0.8470
     0.9235   0.9461   0.9610   0.9841   0.9951   1.0195   1.0344   1.0570
     1.0628   1.0691   1.0803   1.0917   1.1055   1.1407   1.1643   1.1741
     1.1860   1.2103   1.2213   1.2403   1.2515   1.2680   1.2806   1.3465
     1.3598   1.3739   1.3799   1.4121   1.4306   1.4621   1.4723   1.5497
     1.5841   1.6177   1.6231   1.6437   1.6551   1.6801   1.8014   1.8853

          k =-0.1246-0.3807 0.1289 (299642 PWs)   bands (ev):

   -17.5019 -17.4866 -17.4503 -17.4286 -17.4263 -17.4258 -17.4193 -17.4168
   -14.2918 -14.2851 -14.2832 -14.2789 -14.2740 -14.2730 -14.2716 -14.2712
   -14.2677 -14.2671 -14.2661 -14.2614 -14.2602 -14.2583 -14.2522 -14.2520
   -14.2495 -14.2442 -14.2434 -14.2428 -14.2424 -14.2418 -14.2416 -14.2405
   -14.2378 -14.2348 -14.2336 -14.2329 -14.2327 -14.2319 -14.2303 -14.2292
   -14.2282 -14.2273 -14.2249 -14.2237 -14.2195 -14.2177 -14.2145 -14.2067
   -10.4859 -10.4657 -10.4564 -10.4492 -10.4438 -10.4323 -10.4206 -10.4149
    -9.6435  -9.5707  -9.4950  -9.4844  -9.4101  -9.4010  -9.3295  -9.2956
    -9.2830  -9.2729  -9.2471  -9.2385  -9.2325  -9.1796  -9.1738  -9.1557
    -9.1295  -9.0970  -9.0844  -9.0709  -9.0433  -9.0275  -9.0139  -8.9999
    -6.9664  -6.9503  -6.9452  -6.9420  -6.9371  -6.9228  -6.9134  -6.9090
    -6.8989  -6.8667  -6.8203  -6.8091  -6.8019  -6.7885  -6.7795  -6.7747
    -5.7717  -5.5827  -5.3666  -5.3316  -5.1895  -5.1430  -4.9474  -4.8688
    -4.8338  -4.8157  -4.8057  -4.7983  -4.7869  -4.7764  -4.7598  -4.6829
    -2.7875  -2.7731  -2.7669  -2.7571  -2.7528  -2.7461  -2.7406  -2.7392
    -2.7314  -2.7254  -2.7160  -2.7148  -2.7008  -2.6936  -2.6916  -2.6844
    -0.8498  -0.8177  -0.7831  -0.7758  -0.7456  -0.7292  -0.6451  -0.5843
    -0.4287  -0.3845  -0.2726  -0.2237   0.0933   0.1442   0.2658   0.2954
     0.3227   0.3402   0.3534   0.3742   0.4527   0.4615   0.4800   0.5499
     0.5569   0.6239   0.6311   0.6416   0.7227   0.8107   0.8232   0.8327
     0.8887   0.9257   0.9294   0.9569   0.9758   0.9804   0.9976   1.0080
     1.0326   1.0530   1.1012   1.1170   1.1422   1.1536   1.1966   1.2056
     1.2222   1.2290   1.2477   1.2567   1.2708   1.2827   1.3044   1.3254
     1.3465   1.3593   1.4058   1.4248   1.4700   1.4866   1.4959   1.5247
     1.5608   1.5707   1.5797   1.6016   1.6247   1.6554   1.8087   1.8593

          k =-0.1246 0.3807-0.1289 (299642 PWs)   bands (ev):

   -17.5019 -17.4866 -17.4503 -17.4286 -17.4263 -17.4258 -17.4193 -17.4168
   -14.2918 -14.2851 -14.2832 -14.2789 -14.2740 -14.2730 -14.2716 -14.2712
   -14.2677 -14.2671 -14.2661 -14.2614 -14.2602 -14.2583 -14.2522 -14.2520
   -14.2495 -14.2442 -14.2434 -14.2428 -14.2424 -14.2418 -14.2416 -14.2405
   -14.2378 -14.2348 -14.2336 -14.2329 -14.2327 -14.2319 -14.2303 -14.2292
   -14.2282 -14.2273 -14.2249 -14.2237 -14.2195 -14.2177 -14.2145 -14.2067
   -10.4861 -10.4668 -10.4556 -10.4492 -10.4439 -10.4328 -10.4200 -10.4142
    -9.6541  -9.5579  -9.4862  -9.4742  -9.4302  -9.4068  -9.3290  -9.2912
    -9.2868  -9.2738  -9.2530  -9.2326  -9.2304  -9.1797  -9.1751  -9.1542
    -9.1284  -9.0919  -9.0868  -9.0686  -9.0470  -9.0315  -9.0142  -8.9963
    -6.9663  -6.9501  -6.9444  -6.9428  -6.9369  -6.9228  -6.9137  -6.9096
    -6.8990  -6.8667  -6.8203  -6.8090  -6.8024  -6.7872  -6.7804  -6.7746
    -5.7721  -5.5825  -5.3670  -5.3250  -5.1888  -5.1514  -4.9619  -4.8528
    -4.8328  -4.8214  -4.8040  -4.7948  -4.7819  -4.7769  -4.7559  -4.6914
    -2.7881  -2.7720  -2.7677  -2.7579  -2.7522  -2.7456  -2.7416  -2.7400
    -2.7290  -2.7245  -2.7189  -2.7151  -2.7013  -2.6940  -2.6898  -2.6836
    -0.8587  -0.8323  -0.7841  -0.7678  -0.7409  -0.7313  -0.6496  -0.5887
    -0.4122  -0.3617  -0.2484  -0.2089   0.0816   0.1074   0.2553   0.2773
     0.3263   0.3330   0.3681   0.3883   0.4288   0.4390   0.4650   0.5157
     0.5608   0.6288   0.6565   0.6861   0.7122   0.8163   0.8275   0.8391
     0.8890   0.9057   0.9273   0.9728   0.9781   0.9901   1.0030   1.0275
     1.0404   1.0592   1.0934   1.1086   1.1440   1.1501   1.1860   1.1992
     1.2197   1.2270   1.2468   1.2629   1.2676   1.2892   1.3076   1.3333
     1.3434   1.3606   1.4020   1.4158   1.4489   1.4761   1.5029   1.5310
     1.5455   1.5634   1.5758   1.6007   1.6317   1.6865   1.7874   1.8983

          k = 0.1246-0.3807-0.1289 (299642 PWs)   bands (ev):

   -17.5019 -17.4866 -17.4503 -17.4286 -17.4263 -17.4258 -17.4193 -17.4168
   -14.2918 -14.2851 -14.2832 -14.2789 -14.2740 -14.2730 -14.2716 -14.2712
   -14.2677 -14.2671 -14.2661 -14.2614 -14.2602 -14.2583 -14.2522 -14.2520
   -14.2495 -14.2442 -14.2434 -14.2428 -14.2424 -14.2418 -14.2416 -14.2405
   -14.2378 -14.2348 -14.2336 -14.2329 -14.2327 -14.2319 -14.2303 -14.2292
   -14.2282 -14.2273 -14.2249 -14.2237 -14.2195 -14.2177 -14.2145 -14.2067
   -10.4861 -10.4668 -10.4557 -10.4492 -10.4439 -10.4328 -10.4200 -10.4142
    -9.6544  -9.5575  -9.4857  -9.4737  -9.4311  -9.4077  -9.3289  -9.2914
    -9.2849  -9.2725  -9.2541  -9.2374  -9.2280  -9.1795  -9.1734  -9.1545
    -9.1285  -9.0923  -9.0867  -9.0691  -9.0465  -9.0307  -9.0149  -8.9963
    -6.9663  -6.9499  -6.9445  -6.9428  -6.9369  -6.9228  -6.9133  -6.9095
    -6.8996  -6.8666  -6.8203  -6.8090  -6.8024  -6.7872  -6.7804  -6.7746
    -5.7723  -5.5823  -5.3670  -5.3248  -5.1890  -5.1515  -4.9622  -4.8526
    -4.8325  -4.8214  -4.8042  -4.7946  -4.7818  -4.7767  -4.7560  -4.6917
    -2.7881  -2.7721  -2.7678  -2.7575  -2.7524  -2.7459  -2.7420  -2.7404
    -2.7301  -2.7231  -2.7187  -2.7146  -2.7005  -2.6936  -2.6907  -2.6841
    -0.8579  -0.8342  -0.7821  -0.7737  -0.7351  -0.7318  -0.6490  -0.5886
    -0.4121  -0.3629  -0.2479  -0.2105   0.0808   0.1095   0.2572   0.2776
     0.3227   0.3386   0.3679   0.3868   0.4275   0.4367   0.4619   0.5185
     0.5651   0.6264   0.6536   0.6875   0.7133   0.8163   0.8268   0.8367
     0.8910   0.9098   0.9274   0.9685   0.9753   0.9954   1.0039   1.0266
     1.0391   1.0577   1.0923   1.1077   1.1431   1.1534   1.1862   1.2006
     1.2190   1.2292   1.2427   1.2638   1.2702   1.2868   1.3060   1.3330
     1.3469   1.3615   1.4018   1.4154   1.4478   1.4753   1.5030   1.5317
     1.5463   1.5634   1.5754   1.5988   1.6335   1.6865   1.7870   1.8986

          k =-0.1246-0.3807 0.3868 (299633 PWs)   bands (ev):

   -17.5019 -17.4866 -17.4502 -17.4286 -17.4263 -17.4258 -17.4193 -17.4168
   -14.2909 -14.2838 -14.2825 -14.2782 -14.2752 -14.2740 -14.2713 -14.2692
   -14.2679 -14.2675 -14.2662 -14.2629 -14.2601 -14.2581 -14.2522 -14.2520
   -14.2505 -14.2449 -14.2434 -14.2429 -14.2424 -14.2418 -14.2416 -14.2405
   -14.2378 -14.2348 -14.2337 -14.2329 -14.2327 -14.2319 -14.2303 -14.2292
   -14.2282 -14.2273 -14.2249 -14.2237 -14.2195 -14.2177 -14.2145 -14.2067
   -10.4854 -10.4649 -10.4557 -10.4498 -10.4438 -10.4326 -10.4210 -10.4154
    -9.6103  -9.5506  -9.5380  -9.4787  -9.4580  -9.3983  -9.3769  -9.3338
    -9.2852  -9.2533  -9.2093  -9.2045  -9.1948  -9.1663  -9.1490  -9.1405
    -9.1182  -9.1112  -9.1064  -9.0657  -9.0644  -9.0421  -9.0224  -9.0021
    -6.9713  -6.9509  -6.9429  -6.9389  -6.9351  -6.9236  -6.9127  -6.9102
    -6.8964  -6.8736  -6.8152  -6.8030  -6.7939  -6.7906  -6.7848  -6.7803
    -5.6539  -5.4740  -5.4654  -5.2862  -5.2542  -5.0884  -5.0799  -4.9429
    -4.8349  -4.8165  -4.8073  -4.7988  -4.7867  -4.7792  -4.7631  -4.7451
    -2.7877  -2.7744  -2.7711  -2.7568  -2.7503  -2.7466  -2.7402  -2.7362
    -2.7287  -2.7268  -2.7149  -2.7119  -2.6994  -2.6950  -2.6918  -2.6840
    -0.7890  -0.7376  -0.7273  -0.6746  -0.5296  -0.4584  -0.4328  -0.3865
    -0.3094  -0.2968  -0.2867  -0.2675   0.0665   0.1065   0.1273   0.1487
     0.2135   0.2581   0.2771   0.3406   0.3771   0.4129   0.4278   0.4368
     0.5189   0.5390   0.6129   0.6311   0.7167   0.7320   0.8021   0.8325
     0.8714   0.8836   0.9052   0.9444   0.9625   0.9713   0.9966   1.0103
     1.0316   1.0368   1.0541   1.0616   1.1047   1.1210   1.1353   1.1560
     1.2066   1.2298   1.2478   1.2530   1.2667   1.2825   1.3067   1.3247
     1.3789   1.3906   1.4075   1.4454   1.4556   1.4718   1.4863   1.5045
     1.5148   1.5359   1.5791   1.5908   1.6195   1.6472   1.6671   1.7037

          k =-0.1246 0.3807-0.3868 (299633 PWs)   bands (ev):

   -17.5019 -17.4866 -17.4502 -17.4286 -17.4263 -17.4258 -17.4193 -17.4168
   -14.2909 -14.2838 -14.2825 -14.2782 -14.2752 -14.2740 -14.2713 -14.2692
   -14.2679 -14.2675 -14.2662 -14.2629 -14.2601 -14.2581 -14.2522 -14.2520
   -14.2505 -14.2449 -14.2434 -14.2429 -14.2424 -14.2418 -14.2416 -14.2405
   -14.2378 -14.2348 -14.2337 -14.2329 -14.2327 -14.2319 -14.2303 -14.2292
   -14.2282 -14.2273 -14.2249 -14.2237 -14.2195 -14.2177 -14.2145 -14.2067
   -10.4856 -10.4659 -10.4548 -10.4499 -10.4440 -10.4333 -10.4204 -10.4146
    -9.6187  -9.5554  -9.5278  -9.4713  -9.4420  -9.4007  -9.3871  -9.3480
    -9.2850  -9.2525  -9.2076  -9.2018  -9.1973  -9.1681  -9.1467  -9.1359
    -9.1202  -9.1119  -9.1001  -9.0732  -9.0647  -9.0455  -9.0186  -8.9998
    -6.9713  -6.9506  -6.9427  -6.9394  -6.9350  -6.9234  -6.9132  -6.9105
    -6.8963  -6.8736  -6.8152  -6.8029  -6.7942  -6.7900  -6.7850  -6.7803
    -5.6521  -5.4711  -5.4656  -5.2909  -5.2574  -5.0884  -5.0834  -4.9312
    -4.8368  -4.8223  -4.8026  -4.7969  -4.7866  -4.7824  -4.7616  -4.7465
    -2.7883  -2.7736  -2.7715  -2.7564  -2.7494  -2.7465  -2.7415  -2.7358
    -2.7285  -2.7259  -2.7183  -2.7119  -2.7000  -2.6948  -2.6904  -2.6833
    -0.8076  -0.7514  -0.7213  -0.6693  -0.5201  -0.4499  -0.4217  -0.3767
    -0.3134  -0.2935  -0.2728  -0.2503   0.0523   0.0853   0.1211   0.1482
     0.2057   0.2246   0.2998   0.3267   0.3702   0.4088   0.4277   0.4479
     0.5101   0.5526   0.6235   0.6360   0.6995   0.7284   0.7997   0.8164
     0.8677   0.9021   0.9292   0.9484   0.9760   0.9895   0.9984   1.0072
     1.0243   1.0383   1.0485   1.0571   1.0676   1.1112   1.1350   1.1785
     1.1983   1.2307   1.2408   1.2674   1.2779   1.2890   1.3033   1.3409
     1.3852   1.4053   1.4189   1.4380   1.4554   1.4633   1.4798   1.4912
     1.5173   1.5245   1.5385   1.5676   1.6114   1.6423   1.7026   1.7519

          k = 0.1246-0.3807-0.3868 (299633 PWs)   bands (ev):

   -17.5019 -17.4866 -17.4502 -17.4286 -17.4263 -17.4258 -17.4193 -17.4168
   -14.2909 -14.2838 -14.2825 -14.2782 -14.2752 -14.2740 -14.2713 -14.2692
   -14.2679 -14.2675 -14.2662 -14.2629 -14.2601 -14.2581 -14.2522 -14.2520
   -14.2505 -14.2449 -14.2434 -14.2429 -14.2424 -14.2418 -14.2416 -14.2405
   -14.2378 -14.2348 -14.2337 -14.2329 -14.2327 -14.2319 -14.2303 -14.2292
   -14.2282 -14.2273 -14.2249 -14.2237 -14.2195 -14.2177 -14.2145 -14.2067
   -10.4856 -10.4659 -10.4549 -10.4498 -10.4440 -10.4333 -10.4204 -10.4147
    -9.6194  -9.5551  -9.5257  -9.4732  -9.4421  -9.4008  -9.3876  -9.3468
    -9.2844  -9.2536  -9.2093  -9.2004  -9.1972  -9.1677  -9.1455  -9.1360
    -9.1217  -9.1106  -9.1006  -9.0748  -9.0645  -9.0436  -9.0196  -8.9997
    -6.9713  -6.9506  -6.9428  -6.9394  -6.9352  -6.9235  -6.9128  -6.9104
    -6.8970  -6.8733  -6.8152  -6.8030  -6.7941  -6.7902  -6.7850  -6.7802
    -5.6525  -5.4708  -5.4652  -5.2911  -5.2572  -5.0897  -5.0831  -4.9303
    -4.8367  -4.8223  -4.8031  -4.7967  -4.7864  -4.7822  -4.7618  -4.7468
    -2.7883  -2.7738  -2.7713  -2.7566  -2.7496  -2.7460  -2.7418  -2.7365
    -2.7292  -2.7250  -2.7182  -2.7111  -2.6988  -2.6947  -2.6914  -2.6837
    -0.8077  -0.7510  -0.7228  -0.6694  -0.5201  -0.4461  -0.4188  -0.3774
    -0.3134  -0.2923  -0.2739  -0.2587   0.0544   0.0841   0.1294   0.1454
     0.2077   0.2251   0.3019   0.3179   0.3709   0.4109   0.4280   0.4453
     0.5093   0.5538   0.6250   0.6359   0.6973   0.7279   0.8011   0.8170
     0.8641   0.9006   0.9319   0.9546   0.9730   0.9896   0.9986   1.0072
     1.0248   1.0362   1.0516   1.0555   1.0632   1.1134   1.1377   1.1753
     1.1983   1.2301   1.2473   1.2686   1.2792   1.2871   1.2964   1.3422
     1.3905   1.3991   1.4184   1.4388   1.4535   1.4664   1.4761   1.4950
     1.5109   1.5322   1.5372   1.5679   1.6114   1.6416   1.7029   1.7518

          k =-0.3738-0.1269 0.1289 (299661 PWs)   bands (ev):

   -17.5019 -17.4866 -17.4503 -17.4286 -17.4263 -17.4258 -17.4193 -17.4168
   -14.2909 -14.2854 -14.2827 -14.2789 -14.2762 -14.2741 -14.2729 -14.2706
   -14.2670 -14.2659 -14.2650 -14.2625 -14.2595 -14.2579 -14.2522 -14.2520
   -14.2500 -14.2437 -14.2434 -14.2428 -14.2424 -14.2418 -14.2416 -14.2405
   -14.2378 -14.2348 -14.2336 -14.2329 -14.2327 -14.2319 -14.2302 -14.2292
   -14.2282 -14.2273 -14.2249 -14.2237 -14.2195 -14.2177 -14.2145 -14.2067
   -10.4869 -10.4665 -10.4587 -10.4482 -10.4440 -10.4306 -10.4197 -10.4137
    -9.6439  -9.5875  -9.4864  -9.4779  -9.4148  -9.4012  -9.3305  -9.2948
    -9.2838  -9.2721  -9.2418  -9.2336  -9.1943  -9.1837  -9.1740  -9.1541
    -9.1257  -9.1147  -9.1030  -9.0881  -9.0527  -9.0237  -9.0146  -8.9833
    -6.9667  -6.9501  -6.9453  -6.9416  -6.9366  -6.9223  -6.9134  -6.9094
    -6.8990  -6.8673  -6.8208  -6.8091  -6.8020  -6.7886  -6.7772  -6.7756
    -5.7811  -5.6089  -5.3421  -5.3361  -5.1780  -5.1678  -4.9208  -4.8645
    -4.8361  -4.8119  -4.8050  -4.7946  -4.7876  -4.7700  -4.7658  -4.6779
    -2.7939  -2.7758  -2.7682  -2.7576  -2.7528  -2.7508  -2.7396  -2.7356
    -2.7298  -2.7211  -2.7089  -2.7053  -2.7019  -2.7001  -2.6955  -2.6852
    -0.8554  -0.8182  -0.8049  -0.7605  -0.7394  -0.7074  -0.6278  -0.5964
    -0.4450  -0.3789  -0.2956  -0.2256   0.0916   0.1611   0.2707   0.2842
     0.3133   0.3261   0.3503   0.3637   0.4262   0.4413   0.4557   0.5187
     0.5485   0.6093   0.6182   0.6640   0.6995   0.7868   0.8195   0.8272
     0.8759   0.8931   0.9268   0.9731   0.9824   1.0174   1.0285   1.0455
     1.0642   1.0741   1.0967   1.1064   1.1266   1.1534   1.1989   1.2118
     1.2300   1.2353   1.2466   1.2626   1.2712   1.2854   1.2899   1.3177
     1.3279   1.3521   1.3885   1.4220   1.4557   1.4740   1.5060   1.5461
     1.5673   1.5905   1.5953   1.6060   1.6365   1.6437   1.8854   1.9081

          k =-0.3738 0.1269-0.1289 (299661 PWs)   bands (ev):

   -17.5019 -17.4866 -17.4503 -17.4286 -17.4263 -17.4258 -17.4193 -17.4168
   -14.2909 -14.2854 -14.2828 -14.2789 -14.2762 -14.2741 -14.2729 -14.2706
   -14.2670 -14.2659 -14.2650 -14.2625 -14.2595 -14.2579 -14.2522 -14.2520
   -14.2500 -14.2437 -14.2434 -14.2428 -14.2424 -14.2418 -14.2416 -14.2405
   -14.2378 -14.2348 -14.2336 -14.2329 -14.2327 -14.2319 -14.2302 -14.2292
   -14.2282 -14.2273 -14.2249 -14.2237 -14.2195 -14.2177 -14.2145 -14.2067
   -10.4871 -10.4675 -10.4578 -10.4482 -10.4441 -10.4312 -10.4191 -10.4130
    -9.6560  -9.5728  -9.4838  -9.4604  -9.4314  -9.4117  -9.3285  -9.2988
    -9.2816  -9.2712  -9.2425  -9.2326  -9.1968  -9.1845  -9.1720  -9.1534
    -9.1249  -9.1107  -9.0988  -9.0884  -9.0596  -9.0241  -9.0139  -8.9820
    -6.9666  -6.9500  -6.9447  -6.9420  -6.9365  -6.9222  -6.9136  -6.9099
    -6.8991  -6.8673  -6.8208  -6.8090  -6.8024  -6.7874  -6.7782  -6.7753
    -5.7814  -5.6086  -5.3391  -5.3331  -5.1785  -5.1742  -4.9379  -4.8490
    -4.8350  -4.8152  -4.8031  -4.7941  -4.7806  -4.7688  -4.7626  -4.6864
    -2.7942  -2.7764  -2.7667  -2.7588  -2.7531  -2.7515  -2.7380  -2.7349
    -2.7297  -2.7217  -2.7127  -2.7056  -2.7021  -2.6985  -2.6937  -2.6847
    -0.8649  -0.8259  -0.8090  -0.7537  -0.7406  -0.7069  -0.6324  -0.6013
    -0.4269  -0.3572  -0.2685  -0.2122   0.0812   0.1186   0.2523   0.2705
     0.3192   0.3324   0.3552   0.3709   0.4121   0.4236   0.4422   0.5111
     0.5286   0.6134   0.6333   0.6786   0.7309   0.7826   0.8078   0.8384
     0.8601   0.9134   0.9601   0.9721   0.9938   1.0066   1.0245   1.0431
     1.0608   1.0761   1.0974   1.1145   1.1283   1.1468   1.1979   1.2131
     1.2277   1.2383   1.2469   1.2584   1.2732   1.2750   1.2865   1.3144
     1.3323   1.3573   1.3802   1.4215   1.4424   1.4756   1.4982   1.5500
     1.5696   1.5787   1.5868   1.6003   1.6188   1.6997   1.8627   1.9457

          k = 0.3738-0.1269-0.1289 (299661 PWs)   bands (ev):

   -17.5019 -17.4866 -17.4503 -17.4286 -17.4263 -17.4258 -17.4193 -17.4168
   -14.2909 -14.2854 -14.2827 -14.2789 -14.2761 -14.2741 -14.2729 -14.2706
   -14.2670 -14.2659 -14.2650 -14.2625 -14.2595 -14.2579 -14.2522 -14.2520
   -14.2500 -14.2437 -14.2434 -14.2428 -14.2424 -14.2418 -14.2416 -14.2405
   -14.2378 -14.2348 -14.2336 -14.2329 -14.2327 -14.2319 -14.2302 -14.2292
   -14.2282 -14.2273 -14.2249 -14.2237 -14.2195 -14.2177 -14.2145 -14.2067
   -10.4871 -10.4675 -10.4578 -10.4481 -10.4441 -10.4312 -10.4191 -10.4130
    -9.6559  -9.5731  -9.4838  -9.4600  -9.4318  -9.4109  -9.3299  -9.2974
    -9.2818  -9.2712  -9.2419  -9.2341  -9.1963  -9.1840  -9.1731  -9.1520
    -9.1259  -9.1107  -9.0974  -9.0890  -9.0602  -9.0238  -9.0139  -8.9820
    -6.9666  -6.9499  -6.9448  -6.9419  -6.9366  -6.9223  -6.9132  -6.9099
    -6.8996  -6.8672  -6.8209  -6.8090  -6.8024  -6.7875  -6.7782  -6.7752
    -5.7815  -5.6086  -5.3392  -5.3328  -5.1787  -5.1744  -4.9379  -4.8490
    -4.8349  -4.8152  -4.8033  -4.7940  -4.7806  -4.7687  -4.7627  -4.6864
    -2.7941  -2.7767  -2.7669  -2.7588  -2.7539  -2.7508  -2.7385  -2.7346
    -2.7297  -2.7207  -2.7133  -2.7045  -2.7018  -2.6987  -2.6944  -2.6848
    -0.8642  -0.8273  -0.8078  -0.7541  -0.7405  -0.7078  -0.6323  -0.6018
    -0.4255  -0.3567  -0.2688  -0.2123   0.0811   0.1174   0.2601   0.2674
     0.3169   0.3310   0.3549   0.3708   0.4127   0.4238   0.4445   0.5080
     0.5283   0.6108   0.6364   0.6779   0.7313   0.7833   0.8055   0.8356
     0.8597   0.9165   0.9632   0.9678   1.0000   1.0106   1.0221   1.0407
     1.0564   1.0809   1.0946   1.1154   1.1294   1.1408   1.1981   1.2146
     1.2315   1.2368   1.2443   1.2587   1.2728   1.2785   1.2892   1.3105
     1.3408   1.3523   1.3803   1.4207   1.4422   1.4741   1.4971   1.5495
     1.5688   1.5817   1.5860   1.6007   1.6177   1.6998   1.8630   1.9455

          k =-0.3738-0.1269 0.3868 (299680 PWs)   bands (ev):

   -17.5019 -17.4866 -17.4503 -17.4286 -17.4263 -17.4258 -17.4193 -17.4168
   -14.2899 -14.2842 -14.2810 -14.2791 -14.2770 -14.2756 -14.2728 -14.2684
   -14.2681 -14.2662 -14.2648 -14.2620 -14.2616 -14.2572 -14.2522 -14.2520
   -14.2511 -14.2443 -14.2434 -14.2428 -14.2424 -14.2418 -14.2416 -14.2405
   -14.2378 -14.2348 -14.2336 -14.2328 -14.2327 -14.2319 -14.2303 -14.2292
   -14.2282 -14.2273 -14.2249 -14.2237 -14.2195 -14.2177 -14.2145 -14.2067
   -10.4861 -10.4664 -10.4571 -10.4491 -10.4446 -10.4309 -10.4200 -10.4141
    -9.6096  -9.5539  -9.5466  -9.4890  -9.4501  -9.3973  -9.3812  -9.3412
    -9.2438  -9.2196  -9.2061  -9.1949  -9.1888  -9.1805  -9.1594  -9.1547
    -9.1332  -9.1278  -9.1064  -9.0795  -9.0663  -9.0353  -9.0213  -8.9942
    -6.9716  -6.9505  -6.9429  -6.9385  -6.9344  -6.9232  -6.9129  -6.9106
    -6.8962  -6.8737  -6.8154  -6.8033  -6.7945  -6.7902  -6.7842  -6.7804
    -5.6633  -5.4928  -5.4807  -5.3108  -5.2260  -5.0778  -5.0516  -4.9333
    -4.8346  -4.8129  -4.8049  -4.7936  -4.7916  -4.7781  -4.7658  -4.7460
    -2.7928  -2.7674  -2.7657  -2.7590  -2.7505  -2.7474  -2.7407  -2.7380
    -2.7298  -2.7223  -2.7127  -2.7088  -2.7030  -2.6972  -2.6952  -2.6871
    -0.7812  -0.7408  -0.7194  -0.6726  -0.5219  -0.4504  -0.4186  -0.3965
    -0.3425  -0.2995  -0.2785  -0.2663   0.0597   0.0726   0.1184   0.1546
     0.2165   0.2343   0.2516   0.3177   0.4044   0.4106   0.4248   0.4298
     0.5258   0.5692   0.6186   0.6550   0.6777   0.7138   0.7397   0.7856
     0.8075   0.8698   0.8745   0.9036   0.9182   0.9729   1.0132   1.0303
     1.0404   1.0533   1.0638   1.0775   1.1289   1.1472   1.1711   1.1780
     1.2225   1.2523   1.2594   1.2686   1.2803   1.3028   1.3153   1.3309
     1.3591   1.3807   1.3967   1.4200   1.4513   1.4740   1.4828   1.5326
     1.5458   1.5607   1.5810   1.5921   1.6293   1.6544   1.7035   1.7322

          k =-0.3738 0.1269-0.3868 (299680 PWs)   bands (ev):

   -17.5019 -17.4866 -17.4503 -17.4286 -17.4263 -17.4258 -17.4193 -17.4168
   -14.2899 -14.2842 -14.2810 -14.2791 -14.2770 -14.2756 -14.2728 -14.2684
   -14.2681 -14.2662 -14.2648 -14.2620 -14.2616 -14.2572 -14.2522 -14.2520
   -14.2511 -14.2443 -14.2434 -14.2428 -14.2424 -14.2418 -14.2416 -14.2405
   -14.2378 -14.2348 -14.2336 -14.2328 -14.2327 -14.2319 -14.2303 -14.2292
   -14.2282 -14.2273 -14.2249 -14.2237 -14.2195 -14.2177 -14.2145 -14.2067
   -10.4863 -10.4673 -10.4562 -10.4491 -10.4449 -10.4316 -10.4194 -10.4133
    -9.6197  -9.5537  -9.5397  -9.4808  -9.4362  -9.4032  -9.3852  -9.3550
    -9.2440  -9.2177  -9.2077  -9.1966  -9.1894  -9.1809  -9.1600  -9.1483
    -9.1339  -9.1210  -9.1074  -9.0851  -9.0665  -9.0385  -9.0181  -8.9924
    -6.9716  -6.9502  -6.9427  -6.9389  -6.9346  -6.9230  -6.9133  -6.9108
    -6.8962  -6.8736  -6.8154  -6.8032  -6.7948  -6.7896  -6.7844  -6.7805
    -5.6613  -5.4938  -5.4773  -5.3154  -5.2295  -5.0742  -5.0590  -4.9208
    -4.8365  -4.8184  -4.8002  -4.7931  -4.7902  -4.7820  -4.7641  -4.7476
    -2.7931  -2.7681  -2.7652  -2.7579  -2.7515  -2.7458  -2.7403  -2.7385
    -2.7299  -2.7227  -2.7138  -2.7122  -2.7023  -2.6963  -2.6936  -2.6867
    -0.8012  -0.7373  -0.7324  -0.6689  -0.5055  -0.4380  -0.4090  -0.3796
    -0.3543  -0.2930  -0.2693  -0.2513   0.0476   0.0518   0.1232   0.1445
     0.1919   0.2294   0.2544   0.2974   0.4014   0.4071   0.4301   0.4416
     0.5155   0.5851   0.6334   0.6532   0.6794   0.7063   0.7289   0.7755
     0.8110   0.8564   0.8838   0.9322   0.9452   0.9772   0.9973   1.0181
     1.0331   1.0460   1.0619   1.0843   1.1088   1.1575   1.1717   1.1991
     1.2191   1.2510   1.2630   1.2726   1.2817   1.2940   1.3163   1.3645
     1.3670   1.3751   1.3841   1.4123   1.4599   1.4868   1.4917   1.5177
     1.5257   1.5429   1.5654   1.5816   1.5963   1.6805   1.7158   1.7760

          k = 0.3738-0.1269-0.3868 (299680 PWs)   bands (ev):

   -17.5019 -17.4866 -17.4503 -17.4286 -17.4263 -17.4258 -17.4193 -17.4168
   -14.2899 -14.2842 -14.2810 -14.2791 -14.2770 -14.2756 -14.2728 -14.2684
   -14.2681 -14.2662 -14.2648 -14.2620 -14.2616 -14.2572 -14.2522 -14.2520
   -14.2511 -14.2443 -14.2434 -14.2428 -14.2424 -14.2418 -14.2416 -14.2405
   -14.2378 -14.2348 -14.2336 -14.2328 -14.2327 -14.2319 -14.2303 -14.2292
   -14.2282 -14.2273 -14.2249 -14.2237 -14.2195 -14.2177 -14.2145 -14.2067
   -10.4863 -10.4673 -10.4563 -10.4490 -10.4448 -10.4316 -10.4194 -10.4133
    -9.6195  -9.5545  -9.5397  -9.4804  -9.4340  -9.4045  -9.3866  -9.3542
    -9.2436  -9.2185  -9.2078  -9.1956  -9.1910  -9.1809  -9.1576  -9.1489
    -9.1333  -9.1238  -9.1045  -9.0862  -9.0674  -9.0376  -9.0183  -8.9923
    -6.9716  -6.9502  -6.9427  -6.9388  -6.9349  -6.9230  -6.9129  -6.9107
    -6.8969  -6.8734  -6.8154  -6.8032  -6.7947  -6.7897  -6.7845  -6.7803
    -5.6616  -5.4943  -5.4765  -5.3156  -5.2291  -5.0746  -5.0592  -4.9205
    -4.8365  -4.8184  -4.8006  -4.7931  -4.7899  -4.7819  -4.7642  -4.7477
    -2.7930  -2.7687  -2.7652  -2.7576  -2.7518  -2.7460  -2.7407  -2.7389
    -2.7297  -2.7205  -2.7145  -2.7122  -2.7015  -2.6957  -2.6950  -2.6869
    -0.8015  -0.7364  -0.7312  -0.6695  -0.5115  -0.4391  -0.4089  -0.3815
    -0.3475  -0.2923  -0.2630  -0.2543   0.0427   0.0567   0.1191   0.1464
     0.1896   0.2279   0.2549   0.2998   0.4014   0.4084   0.4298   0.4408
     0.5186   0.5818   0.6338   0.6454   0.6804   0.7072   0.7355   0.7761
     0.8065   0.8574   0.8875   0.9285   0.9454   0.9780   0.9980   1.0169
     1.0312   1.0495   1.0636   1.0873   1.1029   1.1589   1.1724   1.2008
     1.2178   1.2516   1.2614   1.2729   1.2795   1.2963   1.3184   1.3579
     1.3676   1.3751   1.3892   1.4119   1.4604   1.4817   1.4963   1.5167
     1.5241   1.5437   1.5663   1.5797   1.5971   1.6814   1.7159   1.7755

          k =-0.3738-0.3807 0.1289 (299583 PWs)   bands (ev):

   -17.5019 -17.4866 -17.4503 -17.4286 -17.4263 -17.4258 -17.4193 -17.4168
   -14.2909 -14.2847 -14.2827 -14.2785 -14.2758 -14.2730 -14.2719 -14.2707
   -14.2668 -14.2663 -14.2661 -14.2627 -14.2600 -14.2590 -14.2522 -14.2520
   -14.2501 -14.2442 -14.2434 -14.2428 -14.2424 -14.2418 -14.2416 -14.2405
   -14.2378 -14.2348 -14.2336 -14.2329 -14.2327 -14.2319 -14.2303 -14.2292
   -14.2282 -14.2273 -14.2249 -14.2237 -14.2195 -14.2177 -14.2145 -14.2067
   -10.4861 -10.4670 -10.4548 -10.4486 -10.4443 -10.4328 -10.4204 -10.4144
    -9.6017  -9.5668  -9.5464  -9.4540  -9.4507  -9.3963  -9.3787  -9.3292
    -9.2834  -9.2700  -9.2465  -9.2394  -9.1851  -9.1418  -9.1363  -9.1237
    -9.1134  -9.1047  -9.0932  -9.0797  -9.0545  -9.0416  -9.0357  -9.0070
    -6.9662  -6.9502  -6.9457  -6.9411  -6.9369  -6.9225  -6.9140  -6.9091
    -6.8980  -6.8669  -6.8202  -6.8090  -6.8015  -6.7891  -6.7787  -6.7761
    -5.6636  -5.5011  -5.4719  -5.3154  -5.2371  -5.0659  -5.0380  -4.9444
    -4.8370  -4.8162  -4.8055  -4.7966  -4.7905  -4.7730  -4.7633  -4.7375
    -2.7863  -2.7716  -2.7667  -2.7567  -2.7489  -2.7444  -2.7404  -2.7388
    -2.7321  -2.7263  -2.7159  -2.7141  -2.7007  -2.6986  -2.6945  -2.6840
    -0.8248  -0.7906  -0.7531  -0.7052  -0.4945  -0.4679  -0.4452  -0.3386
    -0.3206  -0.2970  -0.2692  -0.2290   0.0674   0.1329   0.1497   0.2197
     0.2834   0.3014   0.3205   0.3284   0.3498   0.3740   0.3941   0.4435
[...]
     1.3905   1.4070   1.4232   1.4288   1.4420   1.4645   1.4753   1.4974
     1.5054   1.5408   1.5618   1.5991   1.6050   1.6246   1.6376   1.7628

          k =-0.3737-0.3808 0.3868 (299636 PWs)   bands (ev):

   -17.5012 -17.4859 -17.4473 -17.4277 -17.4266 -17.4254 -17.4220 -17.4176
   -14.2899 -14.2833 -14.2810 -14.2791 -14.2770 -14.2742 -14.2717 -14.2681
   -14.2676 -14.2668 -14.2658 -14.2627 -14.2613 -14.2577 -14.2523 -14.2520
   -14.2513 -14.2451 -14.2436 -14.2430 -14.2426 -14.2420 -14.2415 -14.2405
   -14.2379 -14.2350 -14.2334 -14.2329 -14.2328 -14.2320 -14.2301 -14.2293
   -14.2276 -14.2269 -14.2249 -14.2235 -14.2189 -14.2180 -14.2148 -14.2069
   -10.4859 -10.4656 -10.4532 -10.4496 -10.4448 -10.4331 -10.4192 -10.4145
    -9.5701  -9.5317  -9.5145  -9.5122  -9.4663  -9.4512  -9.4260  -9.3819
    -9.2442  -9.2117  -9.1938  -9.1860  -9.1772  -9.1540  -9.1387  -9.1374
    -9.1222  -9.1113  -9.0890  -9.0752  -9.0660  -9.0527  -9.0445  -9.0138
    -6.9695  -6.9505  -6.9427  -6.9397  -6.9341  -6.9210  -6.9114  -6.9090
    -6.8951  -6.8724  -6.8131  -6.8028  -6.7950  -6.7906  -6.7852  -6.7815
    -5.5497  -5.3871  -5.3730  -5.3574  -5.2133  -5.2055  -5.1787  -5.0535
    -4.8355  -4.8169  -4.8050  -4.7967  -4.7902  -4.7814  -4.7634  -4.7573
    -2.7868  -2.7735  -2.7714  -2.7518  -2.7490  -2.7461  -2.7396  -2.7374
    -2.7296  -2.7255  -2.7135  -2.7111  -2.7001  -2.6945  -2.6932  -2.6857
    -0.5370  -0.5270  -0.4951  -0.4435  -0.4208  -0.3710  -0.3584  -0.3360
    -0.3252  -0.3046  -0.2940  -0.2059   0.0670   0.0801   0.1091   0.1255
     0.1871   0.2088   0.2262   0.2328   0.2802   0.2909   0.3037   0.3649
     0.5918   0.6035   0.6239   0.6402   0.6806   0.7053   0.7353   0.7529
     0.7707   0.7934   0.8388   0.8658   0.8718   0.8993   0.9107   0.9240
     0.9560   0.9747   0.9884   1.0109   1.0433   1.0550   1.0828   1.0887
     1.2408   1.2688   1.2768   1.2883   1.2979   1.3135   1.3347   1.3591
     1.3991   1.4156   1.4319   1.4397   1.4535   1.4712   1.4779   1.5030
     1.5118   1.5357   1.5470   1.5609   1.5724   1.5868   1.5963   1.6001

          k =-0.3737 0.3808-0.3868 (299636 PWs)   bands (ev):

   -17.5012 -17.4859 -17.4473 -17.4277 -17.4266 -17.4254 -17.4220 -17.4176
   -14.2899 -14.2833 -14.2810 -14.2790 -14.2770 -14.2742 -14.2717 -14.2681
   -14.2676 -14.2668 -14.2658 -14.2627 -14.2613 -14.2577 -14.2523 -14.2520
   -14.2513 -14.2451 -14.2436 -14.2430 -14.2426 -14.2420 -14.2415 -14.2405
   -14.2379 -14.2350 -14.2334 -14.2329 -14.2328 -14.2320 -14.2301 -14.2293
   -14.2276 -14.2269 -14.2249 -14.2235 -14.2189 -14.2180 -14.2148 -14.2069
   -10.4861 -10.4664 -10.4525 -10.4498 -10.4448 -10.4337 -10.4187 -10.4138
    -9.5910  -9.5272  -9.5036  -9.4896  -9.4590  -9.4494  -9.4361  -9.4012
    -9.2442  -9.2115  -9.1953  -9.1869  -9.1776  -9.1511  -9.1445  -9.1319
    -9.1187  -9.0956  -9.0929  -9.0880  -9.0695  -9.0599  -9.0364  -9.0105
    -6.9695  -6.9502  -6.9424  -6.9404  -6.9340  -6.9207  -6.9119  -6.9094
    -6.8949  -6.8724  -6.8131  -6.8027  -6.7952  -6.7900  -6.7854  -6.7816
    -5.5454  -5.3860  -5.3689  -5.3621  -5.2161  -5.2056  -5.1962  -5.0339
    -4.8374  -4.8222  -4.8006  -4.7942  -4.7901  -4.7873  -4.7617  -4.7563
    -2.7874  -2.7730  -2.7714  -2.7522  -2.7479  -2.7455  -2.7410  -2.7364
    -2.7291  -2.7247  -2.7182  -2.7112  -2.7000  -2.6939  -2.6918  -2.6852
    -0.6121  -0.5370  -0.4793  -0.4484  -0.4196  -0.3676  -0.3379  -0.3253
    -0.2847  -0.2683  -0.2040  -0.1753   0.0013   0.0248   0.0638   0.0864
     0.1218   0.2076   0.2174   0.2278   0.3069   0.3313   0.3443   0.3550
     0.5568   0.6175   0.6343   0.6694   0.6797   0.7059   0.7368   0.7445
     0.7753   0.8059   0.8395   0.8503   0.8868   0.9015   0.9041   0.9231
     0.9588   0.9719   0.9950   1.0051   1.0265   1.0504   1.0930   1.1201
     1.2355   1.2658   1.2800   1.2926   1.2978   1.3108   1.3326   1.3757
     1.4064   1.4171   1.4256   1.4422   1.4565   1.4602   1.4685   1.4833
     1.5007   1.5223   1.5340   1.5377   1.5489   1.5739   1.6434   1.6643

          k = 0.3737-0.3808-0.3868 (299636 PWs)   bands (ev):

   -17.5012 -17.4859 -17.4473 -17.4277 -17.4266 -17.4254 -17.4220 -17.4176
   -14.2899 -14.2833 -14.2810 -14.2791 -14.2770 -14.2742 -14.2717 -14.2681
   -14.2676 -14.2668 -14.2658 -14.2627 -14.2613 -14.2577 -14.2523 -14.2520
   -14.2513 -14.2451 -14.2436 -14.2430 -14.2426 -14.2420 -14.2415 -14.2405
   -14.2379 -14.2350 -14.2334 -14.2329 -14.2328 -14.2320 -14.2301 -14.2293
   -14.2276 -14.2269 -14.2249 -14.2235 -14.2189 -14.2180 -14.2148 -14.2069
   -10.4861 -10.4664 -10.4526 -10.4497 -10.4447 -10.4337 -10.4187 -10.4139
    -9.5914  -9.5270  -9.5035  -9.4880  -9.4596  -9.4491  -9.4380  -9.4002
    -9.2440  -9.2118  -9.1962  -9.1884  -9.1758  -9.1509  -9.1445  -9.1279
    -9.1208  -9.0990  -9.0939  -9.0857  -9.0714  -9.0569  -9.0369  -9.0106
    -6.9695  -6.9501  -6.9426  -6.9400  -6.9345  -6.9207  -6.9113  -6.9092
    -6.8958  -6.8722  -6.8131  -6.8028  -6.7952  -6.7900  -6.7856  -6.7814
    -5.5455  -5.3867  -5.3684  -5.3614  -5.2165  -5.2054  -5.1968  -5.0335
    -4.8373  -4.8222  -4.8010  -4.7938  -4.7899  -4.7874  -4.7619  -4.7563
    -2.7873  -2.7732  -2.7715  -2.7529  -2.7485  -2.7441  -2.7414  -2.7365
    -2.7292  -2.7242  -2.7187  -2.7107  -2.6989  -2.6936  -2.6929  -2.6856
    -0.6094  -0.5396  -0.4772  -0.4558  -0.4219  -0.3642  -0.3350  -0.3205
    -0.2859  -0.2714  -0.2022  -0.1764   0.0038   0.0293   0.0628   0.0821
     0.1223   0.2049   0.2184   0.2283   0.3073   0.3303   0.3434   0.3538
     0.5581   0.6140   0.6352   0.6700   0.6835   0.7057   0.7370   0.7427
     0.7698   0.8040   0.8431   0.8541   0.8846   0.8981   0.9143   0.9214
     0.9561   0.9729   0.9898   1.0092   1.0287   1.0510   1.0920   1.1195
     1.2358   1.2679   1.2794   1.2920   1.2990   1.3058   1.3347   1.3770
     1.4072   1.4156   1.4262   1.4411   1.4551   1.4582   1.4686   1.4839
     1.5029   1.5223   1.5332   1.5387   1.5476   1.5754   1.6426   1.6646

     highest occupied level (ev):     2.0735

!    total energy              =  -16491.15719156 Ry
     Harris-Foulkes estimate   =  -16491.15719156 Ry
     estimated scf accuracy    <          3.6E-10 Ry

     total all-electron energy =   -677247.826456 Ry

     The total energy is the sum of the following terms:

     one-electron contribution =    -826.42944022 Ry
     hartree contribution      =     599.17088032 Ry
     xc contribution           =    -755.73447679 Ry
     ewald contribution        =   -1153.33468852 Ry
     DFT-D3 Dispersion         =      -0.62629626 Ry
     one-center paw contrib.   =  -14354.20317007 Ry

     convergence has been achieved in   7 iterations

     Forces acting on atoms (cartesian axes, Ry/au):

     atom    1 type  1   force =    -0.00001894    0.00003097   -0.00003138
     atom    2 type  1   force =    -0.00002187    0.00006190    0.00004909
     atom    3 type  1   force =    -0.00000665   -0.00001509   -0.00001076
     atom    4 type  1   force =    -0.00000860   -0.00010553   -0.00002578
     atom    5 type  1   force =    -0.00004255   -0.00000562   -0.00002512
     atom    6 type  1   force =    -0.00001484   -0.00005620    0.00002104
     atom    7 type  1   force =    -0.00004176   -0.00004357   -0.00001319
     atom    8 type  1   force =    -0.00007165    0.00000201    0.00001833
     atom    9 type  2   force =    -0.00002918   -0.00002780   -0.00003114
     atom   10 type  2   force =     0.00006593    0.00000197    0.00002058
     atom   11 type  2   force =    -0.00003169    0.00002275   -0.00001630
     atom   12 type  2   force =     0.00001954   -0.00001627    0.00006180
     atom   13 type  2   force =     0.00005755    0.00002335   -0.00000176
     atom   14 type  2   force =     0.00000377   -0.00004068   -0.00000707
     atom   15 type  2   force =    -0.00001566    0.00003651    0.00002299
     atom   16 type  2   force =    -0.00001246   -0.00005123   -0.00001071
     atom   17 type  2   force =    -0.00001046   -0.00000136   -0.00005749
     atom   18 type  2   force =     0.00001505    0.00001334   -0.00000612
     atom   19 type  2   force =    -0.00004458   -0.00002596    0.00003295
     atom   20 type  2   force =    -0.00001611    0.00000980   -0.00005367
     atom   21 type  2   force =    -0.00004212    0.00001141    0.00003450
     atom   22 type  2   force =     0.00002092    0.00001294   -0.00000013
     atom   23 type  2   force =     0.00006649   -0.00002652   -0.00003465
     atom   24 type  2   force =    -0.00002628    0.00004724   -0.00001235
     atom   25 type  2   force =     0.00002747    0.00004126    0.00005840
     atom   26 type  2   force =     0.00000827   -0.00000019   -0.00008578
     atom   27 type  2   force =    -0.00000765    0.00000640   -0.00001734
     atom   28 type  2   force =    -0.00002219    0.00005596    0.00000218
     atom   29 type  2   force =    -0.00002452   -0.00002879   -0.00009577
     atom   30 type  2   force =     0.00000145    0.00002625    0.00003102
     atom   31 type  2   force =     0.00001296    0.00002920    0.00002046
     atom   32 type  2   force =     0.00005107    0.00001230   -0.00006291
     atom   33 type  3   force =     0.00002945   -0.00007528    0.00001158
     atom   34 type  3   force =     0.00003120    0.00003667    0.00004273
     atom   35 type  3   force =    -0.00005642   -0.00007389    0.00000654
     atom   36 type  3   force =    -0.00001533   -0.00001345    0.00000126
     atom   37 type  3   force =    -0.00001076   -0.00003121    0.00002278
     atom   38 type  3   force =     0.00006014   -0.00005293    0.00000973
     atom   39 type  3   force =     0.00004512   -0.00003364    0.00001046
     atom   40 type  3   force =    -0.00003201   -0.00001626    0.00002123
     atom   41 type  4   force =    -0.00010997   -0.00002251   -0.00001420
     atom   42 type  4   force =     0.00005648   -0.00001755   -0.00002904
     atom   43 type  4   force =    -0.00001678   -0.00003923    0.00000947
     atom   44 type  4   force =     0.00004931   -0.00000688    0.00002431
     atom   45 type  4   force =    -0.00001102   -0.00004387   -0.00002926
     atom   46 type  4   force =    -0.00011438   -0.00002074    0.00000890
     atom   47 type  4   force =    -0.00005533    0.00000817    0.00000955
     atom   48 type  4   force =     0.00005252    0.00001841   -0.00001801
     atom   49 type  5   force =    -0.00004550    0.00001191   -0.00009164
     atom   50 type  5   force =    -0.00002438   -0.00002449    0.00014077
     atom   51 type  5   force =     0.00001455    0.00006616   -0.00003973
     atom   52 type  5   force =     0.00001374    0.00007438   -0.00003657
     atom   53 type  5   force =    -0.00000872    0.00006960    0.00005663
     atom   54 type  5   force =     0.00003321   -0.00011833   -0.00001693
     atom   55 type  5   force =     0.00002298    0.00000061   -0.00001502
     atom   56 type  5   force =     0.00000084   -0.00000644    0.00001487
     atom   57 type  5   force =    -0.00000513    0.00002498   -0.00000478
     atom   58 type  5   force =    -0.00002656    0.00002271    0.00001714
     atom   59 type  5   force =     0.00002459   -0.00007999    0.00000835
     atom   60 type  5   force =    -0.00003208    0.00005448    0.00002630
     atom   61 type  5   force =     0.00005703    0.00003650   -0.00005419
     atom   62 type  5   force =     0.00001518    0.00000861    0.00000858
     atom   63 type  5   force =     0.00003899    0.00000528    0.00004107
     atom   64 type  5   force =     0.00003780    0.00000198    0.00010344
     atom   65 type  5   force =    -0.00002148    0.00005676    0.00000919
     atom   66 type  5   force =     0.00000562    0.00001095   -0.00008930
     atom   67 type  5   force =    -0.00001409    0.00005843   -0.00002156
     atom   68 type  5   force =     0.00006738   -0.00001796   -0.00001792
     atom   69 type  5   force =     0.00003087   -0.00000439    0.00003414
     atom   70 type  5   force =     0.00001876    0.00000733    0.00000749
     atom   71 type  5   force =    -0.00003497    0.00000227    0.00002845
     atom   72 type  5   force =    -0.00001316   -0.00000005   -0.00001774
     atom   73 type  5   force =     0.00002508   -0.00000120   -0.00006945
     atom   74 type  5   force =     0.00003072    0.00000560   -0.00000215
     atom   75 type  5   force =     0.00001886   -0.00000140    0.00007940
     atom   76 type  5   force =    -0.00002038    0.00002442    0.00000731
     atom   77 type  5   force =    -0.00002063    0.00000827   -0.00000624
     atom   78 type  5   force =    -0.00001538    0.00002758   -0.00002708
     atom   79 type  5   force =     0.00000628   -0.00001766   -0.00012793
     atom   80 type  5   force =    -0.00004501   -0.00004702    0.00013358
     atom   81 type  5   force =     0.00005095    0.00006334   -0.00000528
     atom   82 type  5   force =     0.00001426    0.00007957   -0.00008429
     atom   83 type  5   force =     0.00000789    0.00005424    0.00007050
     atom   84 type  5   force =     0.00002239   -0.00008328    0.00001312
     atom   85 type  5   force =    -0.00001831   -0.00000894   -0.00005879
     atom   86 type  5   force =     0.00001014   -0.00008711    0.00012041
     atom   87 type  5   force =    -0.00000336    0.00010011   -0.00003124
     atom   88 type  5   force =     0.00000935    0.00004876   -0.00006092
     atom   89 type  5   force =    -0.00000392    0.00005069    0.00010154
     atom   90 type  5   force =     0.00001715   -0.00012207   -0.00000065
     atom   91 type  5   force =    -0.00001519    0.00005106   -0.00000777
     atom   92 type  5   force =     0.00007135   -0.00003535    0.00000049
     atom   93 type  5   force =    -0.00000545    0.00005054   -0.00001985
     atom   94 type  5   force =    -0.00001092   -0.00003203    0.00004987
     atom   95 type  5   force =    -0.00003626    0.00000421    0.00002549
     atom   96 type  5   force =     0.00001205   -0.00001021   -0.00005311

     Total force =     0.000719     Total SCF correction =     0.000057


     Computing stress (Cartesian axis) and pressure

          total   stress  (Ry/bohr**3)                   (kbar)     P=   -0.01
  -0.00000002   0.00000600   0.00000099         -0.00      0.88      0.14
   0.00000600   0.00000005  -0.00000073          0.88      0.01     -0.11
   0.00000099  -0.00000073  -0.00000017          0.14     -0.11     -0.03


     number of scf cycles    =  35
     number of bfgs steps    =  34

     enthalpy old            =  -16491.1571907054 Ry
     enthalpy new            =  -16491.1571915573 Ry

     CASE: enthalpy_new < enthalpy_old

     new trust radius        =       0.0033779581 bohr
     new conv_thr            =       0.0000000010 Ry

     new unit-cell volume =  13497.40734 a.u.^3 (  2000.10939 Ang^3 )
     density =      4.12278 g/cm^3

CELL_PARAMETERS (alat= 24.15259000)
   1.003379025   0.000000000   0.000000000
   0.000000000   0.984695184   0.000000000
   0.000000000   0.000000000   0.969599528

ATOMIC_POSITIONS (crystal)
Pb       0.002263112   0.002220593  -0.001038206
Pb      -0.000001911   0.003502225   0.499528448
Pb       0.004105110   0.504461685  -0.000749043
Pb       0.001601833   0.505261260   0.501821203
Pb       0.502380585   0.001441629   0.001110113
Pb       0.500644337   0.002650081   0.501091386
Pb       0.506686014   0.503052921   0.003194102
Pb       0.505128337   0.503307021   0.502545456
I        0.253273181   0.017697075  -0.032686541
I        0.027192662   0.252885441   0.043092227
I        0.039703348  -0.048624683   0.249012036
I        0.251022531   0.024348211   0.530952089
I        0.021363802   0.255061175   0.454352347
I       -0.040041641   0.054763914   0.749318267
I        0.255687531   0.530797064   0.027489726
I        0.016609039   0.752846075  -0.053743733
I       -0.031696407   0.551141324   0.250251115
I        0.253786334   0.532035764   0.478665721
I        0.016234167   0.755181339   0.546846156
I        0.033399366   0.445560108   0.750409772
I        0.753202319   0.024526058   0.032439548
I        0.519100259   0.251697848  -0.041522738
I        0.461805437   0.053010375   0.251077461
I        0.750834596   0.026744066   0.467762464
I        0.516557032   0.252298911   0.547180770
I        0.533097575  -0.051391725   0.751168528
I        0.755686222   0.520981936  -0.030118944
I        0.527948584   0.751993994   0.048978125
I        0.538743306   0.450841445   0.253103872
I        0.753990239   0.521917438   0.533050094
I        0.526084576   0.752510125   0.456095071
I        0.472908089   0.547446692   0.753238422
C        0.276084911   0.292336232   0.253601003
C        0.285117714   0.292903848   0.753997059
C        0.289894516   0.794373956   0.251616928
C        0.269562990   0.776591870   0.741706464
C        0.788648464   0.292509071   0.246690427
C        0.770718897   0.288062100   0.750275701
C        0.783912310   0.787227590   0.252539354
C        0.783993017   0.799437953   0.748225578
N        0.214322840   0.191920974   0.251658761
N        0.202577276   0.209294623   0.752116591
N        0.203551972   0.714731066   0.252191971
N        0.215975384   0.671542346   0.750003297
N        0.702058189   0.213265113   0.248901206
N        0.709000167   0.187605553   0.751429973
N        0.719075921   0.688785493   0.252894866
N        0.704407388   0.712917326   0.751778723
H        0.166570247   0.189134062   0.183731583
H        0.165320302   0.187565481   0.318475145
H        0.263495960   0.126420295   0.251421708
H        0.325541032   0.295183400   0.181768216
H        0.324531121   0.293043096   0.326236312
H        0.222190781   0.359716163   0.254200614
H        0.209001392   0.161228420   0.683837085
H        0.128919528   0.243176523   0.752300369
H        0.208431167   0.159084870   0.818812569
H        0.276406095   0.343021936   0.682426498
H        0.361584496   0.254534415   0.753843320
H        0.275541615   0.340705108   0.827078005
H        0.207480865   0.665068537   0.185039952
H        0.131683941   0.752642498   0.251792900
H        0.207214164   0.666225829   0.320199186
H        0.282814453   0.843212885   0.178940805
H        0.364578335   0.752482022   0.251963574
H        0.282766729   0.844289392   0.323527118
H        0.217955785   0.630849061   0.677120012
H        0.138666408   0.681152176   0.772450008
H        0.250695342   0.623597186   0.807690993
H        0.230807081   0.823475958   0.679102693
H        0.351289845   0.763116143   0.720587350
H        0.263870166   0.817104411   0.819635401
H        0.704976057   0.163374786   0.181784878
H        0.630252241   0.251152415   0.249753828
H        0.706918079   0.164446432   0.316753782
H        0.780572475   0.341477758   0.174198841
H        0.863131769   0.250262991   0.245470085
H        0.783324557   0.342318210   0.318831517
H        0.660088060   0.183666284   0.684572650
H        0.661356947   0.184308850   0.819307109
H        0.758238623   0.122203067   0.751261659
H        0.818936213   0.289472840   0.677517309
H        0.820286744   0.290268315   0.822028844
H        0.716834297   0.355423868   0.750451656
H        0.670044169   0.686905345   0.185926735
H        0.671145165   0.686471229   0.320633670
H        0.766203140   0.621852452   0.252279366
H        0.831833942   0.787835497   0.179553482
H        0.833898694   0.786967234   0.324051144
H        0.732234705   0.856344992   0.253730402
H        0.710303679   0.663085107   0.684872493
H        0.629728144   0.744292145   0.753219763
H        0.713464444   0.664893164   0.819671428
H        0.770964455   0.847099303   0.675623559
H        0.861670017   0.763789885   0.746276342
H        0.775121019   0.848971462   0.820187813



     Writing output data file MAPbI_vcrelax_PAW15.save/
     NEW-OLD atomic charge density approx. for the potential
     extrapolated charge  399.98936, renormalised to  400.00000
