
     Program PWSCF v.6.4 starts on  7Aug2020 at 15:16:25 

     This program is part of the open-source Quantum ESPRESSO suite
     for quantum simulation of materials; please cite
         "P. Giannozzi et al., J. Phys.:Condens. Matter 21 395502 (2009);
         "P. Giannozzi et al., J. Phys.:Condens. Matter 29 465901 (2017);
          URL http://www.quantum-espresso.org", 
     in publications or presentations arising from this work. More details at
     http://www.quantum-espresso.org/quote

     Parallel version (MPI), running on    16 processors

     MPI processes distributed on     1 nodes
     R & G space division:  proc/nbgrp/npool/nimage =      16
     Waiting for input...
     Reading input from standard input

     Current dimensions of program PWSCF are:
     Max number of different atomic species (ntypx) = 10
     Max number of k-points (npk) =  40000
     Max angular momentum in pseudopotentials (lmaxx) =  3
               file Pb.pbe-dn-kjpaw_psl.1.0.0.UPF: wavefunction(s)  6S 6P 5D renormalized
               file I.pbe-n-kjpaw_psl.1.0.0.UPF: wavefunction(s)  5S renormalized
               file C.pbe-n-kjpaw_psl.1.0.0.UPF: wavefunction(s)  2S 2P renormalized
               file N.pbe-n-kjpaw_psl.1.0.0.UPF: wavefunction(s)  2S renormalized
               file H.pbe-kjpaw_psl.1.0.0.UPF: wavefunction(s)  1S renormalized

     --------------------------------------------
     Parameters for DFT-D3 Dispersion Correction:
     --------------------------------------------
       Reference C6 values for interpolation: 

         atom   Coordination number   C6
         H          0.912             6.05
         H          0.000            15.18
         C          0.000            98.23
         C          0.987            86.49
         C          1.998            58.72
         C          2.999            51.56
         C          3.984            36.41
         N          0.000            50.54
         N          0.994            44.25
         N          2.014            39.35
         N          2.990            31.16
         I          0.000           703.93
         I          0.997           717.00
         Pb         0.000          1477.63
         Pb         0.938          1266.00
         Pb         1.936          1088.91
         Pb         2.908          1048.37
         Pb         3.910           910.57

       Values used:

         atom   Coordination number  R0_AB[au]  C6      C8
         Pb         4.858            4.041    910.57 144158.30
         Pb         4.858            4.041    910.57 144158.30
         Pb         4.858            4.041    910.57 144158.30
         Pb         4.858            4.041    910.57 144158.30
         Pb         4.858            4.041    910.57 144158.30
         Pb         4.858            4.041    910.57 144158.30
         Pb         4.858            4.041    910.57 144158.30
         Pb         4.858            4.041    910.57 144158.30
         I          1.797            3.532    717.00  65855.97
         I          1.797            3.532    717.00  65855.97
         I          1.797            3.532    717.00  65855.97
         I          1.797            3.532    717.00  65855.97
         I          1.797            3.532    717.00  65855.97
         I          1.797            3.532    717.00  65855.97
         I          1.797            3.532    717.00  65855.97
         I          1.797            3.532    717.00  65855.97
         I          1.993            3.532    717.00  65856.00
         I          1.993            3.532    717.00  65856.00
         I          1.993            3.532    717.00  65856.00
         I          1.993            3.532    717.00  65856.00
         I          1.993            3.532    717.00  65856.00
         I          1.993            3.532    717.00  65856.00
         I          1.993            3.532    717.00  65856.00
         I          1.993            3.532    717.00  65856.00
         I          1.981            3.532    717.00  65856.00
         I          1.981            3.532    717.00  65856.00
         I          1.981            3.532    717.00  65856.00
         I          1.981            3.532    717.00  65856.00
         I          1.981            3.532    717.00  65856.00
         I          1.981            3.532    717.00  65856.00
         I          1.981            3.532    717.00  65856.00
         I          1.981            3.532    717.00  65856.00
         C          3.060            2.750     51.10   1477.77
         C          3.060            2.750     51.10   1477.77
         C          3.060            2.750     51.10   1477.77
         C          3.060            2.750     51.10   1477.77
         C          3.060            2.750     51.10   1477.77
         C          3.060            2.750     51.10   1477.77
         C          3.060            2.750     51.10   1477.77
         C          3.060            2.750     51.10   1477.77
         N          3.096            2.478     31.24    689.11
         N          3.096            2.478     31.24    689.11
         N          3.096            2.478     31.24    689.11
         N          3.096            2.478     31.24    689.11
         N          3.096            2.478     31.24    689.11
         N          3.096            2.478     31.24    689.11
         N          3.096            2.478     31.24    689.11
         N          3.096            2.478     31.24    689.11
         N          3.096            2.478     31.24    689.11
         N          3.096            2.478     31.24    689.11
         N          3.096            2.478     31.24    689.11
         N          3.096            2.478     31.24    689.11
         N          3.096            2.478     31.24    689.11
         N          3.096            2.478     31.24    689.11
         N          3.096            2.478     31.24    689.11
         N          3.096            2.478     31.24    689.11
         H          1.014            2.062      6.17     74.58
         H          1.014            2.062      6.17     74.58
         H          1.014            2.062      6.17     74.58
         H          1.014            2.062      6.17     74.58
         H          1.014            2.062      6.17     74.58
         H          1.014            2.062      6.17     74.58
         H          1.014            2.062      6.17     74.58
         H          1.014            2.062      6.17     74.58
         H          1.027            2.062      6.16     74.45
         H          1.027            2.062      6.16     74.45
         H          1.027            2.062      6.16     74.45
         H          1.027            2.062      6.16     74.45
         H          1.027            2.062      6.16     74.45
         H          1.027            2.062      6.16     74.45
         H          1.027            2.062      6.16     74.45
         H          1.027            2.062      6.16     74.45
         H          1.041            2.062      6.15     74.32
         H          1.041            2.062      6.15     74.32
         H          1.041            2.062      6.15     74.32
         H          1.041            2.062      6.15     74.32
         H          1.041            2.062      6.15     74.32
         H          1.041            2.062      6.15     74.32
         H          1.041            2.062      6.15     74.32
         H          1.041            2.062      6.15     74.32
         H          1.027            2.062      6.16     74.45
         H          1.027            2.062      6.16     74.45
         H          1.027            2.062      6.16     74.45
         H          1.027            2.062      6.16     74.45
         H          1.027            2.062      6.16     74.45
         H          1.027            2.062      6.16     74.45
         H          1.027            2.062      6.16     74.45
         H          1.027            2.062      6.16     74.45
         H          1.041            2.062      6.15     74.32
         H          1.041            2.062      6.15     74.32
         H          1.041            2.062      6.15     74.32
         H          1.041            2.062      6.15     74.32
         H          1.041            2.062      6.15     74.32
         H          1.041            2.062      6.15     74.32
         H          1.041            2.062      6.15     74.32
         H          1.041            2.062      6.15     74.32

         Molecular C6 ( Ry / a.u.^6 ) =   1270848.97


     Subspace diagonalization in iterative solution of the eigenvalue problem:
     a serial algorithm will be used


     Parallelization info
     --------------------
     sticks:   dense  smooth     PW     G-vecs:    dense   smooth      PW
     Min        1400    1400    361               157974   157974   20665
     Max        1401    1401    362               157975   157975   20668
     Sum       22409   22409   5779              2527593  2527593  330651



     bravais-lattice index     =            0
     lattice parameter (alat)  =      24.5317  a.u.
     unit-cell volume          =   14231.0515 (a.u.)^3
     number of atoms/cell      =           96
     number of atomic types    =            5
     number of electrons       =       432.00
     number of Kohn-Sham states=          216
     kinetic-energy cutoff     =     120.0000  Ry
     charge density cutoff     =     480.0000  Ry
     convergence threshold     =      1.0E-07
     mixing beta               =       0.7000
     number of iterations used =            8  plain     mixing
     Exchange-correlation      = SLA PW PBX PBC ( 1  4  3  4 0 0)
     nstep                     =           50


     celldm(1)=  24.531734  celldm(2)=   0.000000  celldm(3)=   0.000000
     celldm(4)=   0.000000  celldm(5)=   0.000000  celldm(6)=   0.000000

     crystal axes: (cart. coord. in units of alat)
               a(1) = (   1.000000   0.000000   0.000000 )  
               a(2) = (   0.000000   0.973994   0.000000 )  
               a(3) = (   0.000000   0.000000   0.989682 )  

     reciprocal axes: (cart. coord. in units 2 pi/alat)
               b(1) = (  1.000000  0.000000  0.000000 )  
               b(2) = (  0.000000  1.026700  0.000000 )  
               b(3) = (  0.000000  0.000000  1.010425 )  


     PseudoPot. # 1 for Pb read from file:
     ../../../Pseudopotential/Pb.pbe-dn-kjpaw_psl.1.0.0.UPF
     MD5 check sum: 684fc8fbce61a260853528575e4d9ab7
     Pseudo is Projector augmented-wave + core cor, Zval = 14.0
     Generated using "atomic" code by A. Dal Corso v.6.3
     Shape of augmentation charge: PSQ
     Using radial grid of 1281 points,  6 beta functions with: 
                l(1) =   0
                l(2) =   0
                l(3) =   1
                l(4) =   1
                l(5) =   2
                l(6) =   2
     Q(r) pseudized with 0 coefficients 


     PseudoPot. # 2 for I  read from file:
     ../../../Pseudopotential/I.pbe-n-kjpaw_psl.1.0.0.UPF
     MD5 check sum: cd3d296c3308a581e1559a0c8a554cb5
     Pseudo is Projector augmented-wave + core cor, Zval =  7.0
     Generated using "atomic" code by A. Dal Corso v.6.3
     Shape of augmentation charge: PSQ
     Using radial grid of 1247 points,  6 beta functions with: 
                l(1) =   0
                l(2) =   0
                l(3) =   1
                l(4) =   1
                l(5) =   2
                l(6) =   2
     Q(r) pseudized with 0 coefficients 


     PseudoPot. # 3 for C  read from file:
     ../../../Pseudopotential/C.pbe-n-kjpaw_psl.1.0.0.UPF
     MD5 check sum: 5f16ad9a65e90284d1d834d4ab3b0f7d
     Pseudo is Projector augmented-wave + core cor, Zval =  4.0
     Generated using "atomic" code by A. Dal Corso v.6.3
     Shape of augmentation charge: PSQ
     Using radial grid of 1073 points,  4 beta functions with: 
                l(1) =   0
                l(2) =   0
                l(3) =   1
                l(4) =   1
     Q(r) pseudized with 0 coefficients 


     PseudoPot. # 4 for N  read from file:
     ../../../Pseudopotential/N.pbe-n-kjpaw_psl.1.0.0.UPF
     MD5 check sum: 14c48229446f9f2d411169a3abcbc3fa
     Pseudo is Projector augmented-wave + core cor, Zval =  5.0
     Generated using "atomic" code by A. Dal Corso v.6.3
     Shape of augmentation charge: PSQ
     Using radial grid of 1085 points,  4 beta functions with: 
                l(1) =   0
                l(2) =   0
                l(3) =   1
                l(4) =   1
     Q(r) pseudized with 0 coefficients 


     PseudoPot. # 5 for H  read from file:
     ../../../Pseudopotential/H.pbe-kjpaw_psl.1.0.0.UPF
     MD5 check sum: d81a744832360e4a8af0b0b5b123bc2a
     Pseudo is Projector augmented-wave, Zval =  1.0
     Generated using "atomic" code by A. Dal Corso v.6.3MaX
     Shape of augmentation charge: PSQ
     Using radial grid of  929 points,  2 beta functions with: 
                l(1) =   0
                l(2) =   0
     Q(r) pseudized with 0 coefficients 


     atomic species   valence    mass     pseudopotential
        Pb            14.00   207.97600     Pb( 1.00)
        I              7.00   126.90400     I ( 1.00)
        C              4.00    12.00000     C ( 1.00)
        N              5.00    14.00300     N ( 1.00)
        H              1.00     1.00700     H ( 1.00)

      2 Sym. Ops. (no inversion) found



   Cartesian axes

     site n.     atom                  positions (alat units)
         1           Pb  tau(   1) = (   0.0001093  -0.0279730   0.0000000  )
         2           Pb  tau(   2) = (   0.0001108  -0.0279772   0.4948412  )
         3           Pb  tau(   3) = (   0.0000935   0.4590280   0.0000000  )
         4           Pb  tau(   4) = (   0.0000995   0.4590341   0.4948412  )
         5           Pb  tau(   5) = (   0.5001094  -0.0279622   0.0000000  )
         6           Pb  tau(   6) = (   0.5001104  -0.0279625   0.4948412  )
         7           Pb  tau(   7) = (   0.5000922   0.4590236   0.0000000  )
         8           Pb  tau(   8) = (   0.5000953   0.4590250   0.4948412  )
         9           I   tau(   9) = (   0.2499781  -0.0224262   0.0000000  )
        10           I   tau(  10) = (   0.2499781  -0.0224275   0.4948412  )
        11           I   tau(  11) = (   0.2499816   0.4645697   0.0000000  )
        12           I   tau(  12) = (   0.2499819   0.4645700   0.4948412  )
        13           I   tau(  13) = (   0.7499776  -0.0224275   0.0000000  )
        14           I   tau(  14) = (   0.7499768  -0.0224260   0.4948412  )
        15           I   tau(  15) = (   0.7499785   0.4645688   0.0000000  )
        16           I   tau(  16) = (   0.7499784   0.4645671   0.4948412  )
        17           I   tau(  17) = (  -0.0000341   0.2146531   0.0000000  )
        18           I   tau(  18) = (  -0.0000338   0.2146495   0.4948412  )
        19           I   tau(  19) = (  -0.0000324   0.7016471   0.0000000  )
        20           I   tau(  20) = (  -0.0000342   0.7016489   0.4948412  )
        21           I   tau(  21) = (   0.4999653   0.2146530   0.0000000  )
        22           I   tau(  22) = (   0.4999651   0.2146538   0.4948412  )
        23           I   tau(  23) = (   0.4999670   0.7016505   0.0000000  )
        24           I   tau(  24) = (   0.4999662   0.7016482   0.4948412  )
        25           I   tau(  25) = (  -0.0000187  -0.0394005   0.2474216  )
        26           I   tau(  26) = (  -0.0000187  -0.0394005   0.7422609  )
        27           I   tau(  27) = (  -0.0000151   0.4475983   0.2474203  )
        28           I   tau(  28) = (  -0.0000151   0.4475983   0.7422621  )
        29           I   tau(  29) = (   0.4999798  -0.0393944   0.2474196  )
        30           I   tau(  30) = (   0.4999798  -0.0393944   0.7422629  )
        31           I   tau(  31) = (   0.4999816   0.4476015   0.2474217  )
        32           I   tau(  32) = (   0.4999816   0.4476015   0.7422608  )
        33           C   tau(  33) = (   0.2499824   0.2529130   0.2474204  )
        34           C   tau(  34) = (   0.2499824   0.2529130   0.7422621  )
        35           C   tau(  35) = (   0.2500025   0.7399169   0.2474211  )
        36           C   tau(  36) = (   0.2500025   0.7399169   0.7422614  )
        37           C   tau(  37) = (   0.7499802   0.2529151   0.2474205  )
        38           C   tau(  38) = (   0.7499802   0.2529151   0.7422620  )
        39           C   tau(  39) = (   0.7499907   0.7399215   0.2474206  )
        40           C   tau(  40) = (   0.7499907   0.7399215   0.7422619  )
        41           N   tau(  41) = (   0.1601239   0.2067306   0.2474203  )
        42           N   tau(  42) = (   0.1601239   0.2067306   0.7422622  )
        43           N   tau(  43) = (   0.1601084   0.6937177   0.2474213  )
        44           N   tau(  44) = (   0.1601084   0.6937177   0.7422612  )
        45           N   tau(  45) = (   0.6601227   0.2067341   0.2474201  )
        46           N   tau(  46) = (   0.6601227   0.2067341   0.7422623  )
        47           N   tau(  47) = (   0.6601156   0.6937189   0.2474203  )
        48           N   tau(  48) = (   0.6601156   0.6937189   0.7422622  )
        49           N   tau(  49) = (   0.3398884   0.2067312   0.2474204  )
        50           N   tau(  50) = (   0.3398884   0.2067312   0.7422620  )
        51           N   tau(  51) = (   0.3398752   0.6937287   0.2474210  )
        52           N   tau(  52) = (   0.3398752   0.6937287   0.7422615  )
        53           N   tau(  53) = (   0.8398869   0.2067233   0.2474206  )
        54           N   tau(  54) = (   0.8398869   0.2067233   0.7422619  )
        55           N   tau(  55) = (   0.8398845   0.6937176   0.2474208  )
        56           N   tau(  56) = (   0.8398845   0.6937176   0.7422617  )
        57           H   tau(  57) = (   0.2499941   0.3370178   0.2474205  )
        58           H   tau(  58) = (   0.2499941   0.3370178   0.7422620  )
        59           H   tau(  59) = (   0.2499937   0.8240134   0.2474209  )
        60           H   tau(  60) = (   0.2499937   0.8240134   0.7422616  )
        61           H   tau(  61) = (   0.7499988   0.3370168   0.2474207  )
        62           H   tau(  62) = (   0.7499988   0.3370168   0.7422618  )
        63           H   tau(  63) = (   0.7499986   0.8240124   0.2474207  )
        64           H   tau(  64) = (   0.7499986   0.8240124   0.7422618  )
        65           H   tau(  65) = (   0.1506049   0.1286616   0.2474198  )
        66           H   tau(  66) = (   0.1506049   0.1286616   0.7422627  )
        67           H   tau(  67) = (   0.1506018   0.6156654   0.2474211  )
        68           H   tau(  68) = (   0.1506018   0.6156654   0.7422614  )
        69           H   tau(  69) = (   0.6505965   0.1286684   0.2474206  )
        70           H   tau(  70) = (   0.6505965   0.1286684   0.7422619  )
        71           H   tau(  71) = (   0.6506003   0.6156697   0.2474197  )
        72           H   tau(  72) = (   0.6506003   0.6156697   0.7422628  )
        73           H   tau(  73) = (   0.0957458   0.2516256   0.2474195  )
        74           H   tau(  74) = (   0.0957458   0.2516256   0.7422630  )
        75           H   tau(  75) = (   0.0957460   0.7386252   0.2474215  )
        76           H   tau(  76) = (   0.0957460   0.7386252   0.7422610  )
        77           H   tau(  77) = (   0.5957444   0.2516348   0.2474203  )
        78           H   tau(  78) = (   0.5957444   0.2516348   0.7422622  )
        79           H   tau(  79) = (   0.5957447   0.7386322   0.2474199  )
        80           H   tau(  80) = (   0.5957447   0.7386322   0.7422626  )
        81           H   tau(  81) = (   0.3493940   0.1286705   0.2474204  )
        82           H   tau(  82) = (   0.3493940   0.1286705   0.7422620  )
        83           H   tau(  83) = (   0.3493932   0.6156684   0.2474207  )
        84           H   tau(  84) = (   0.3493932   0.6156684   0.7422618  )
        85           H   tau(  85) = (   0.8493874   0.1286669   0.2474206  )
        86           H   tau(  86) = (   0.8493874   0.1286669   0.7422619  )
        87           H   tau(  87) = (   0.8493896   0.6156657   0.2474208  )
        88           H   tau(  88) = (   0.8493896   0.6156657   0.7422617  )
        89           H   tau(  89) = (   0.4042424   0.2516361   0.2474208  )
        90           H   tau(  90) = (   0.4042424   0.2516361   0.7422616  )
        91           H   tau(  91) = (   0.4042448   0.7386343   0.2474208  )
        92           H   tau(  92) = (   0.4042448   0.7386343   0.7422617  )
        93           H   tau(  93) = (   0.9042431   0.2516266   0.2474203  )
        94           H   tau(  94) = (   0.9042431   0.2516266   0.7422621  )
        95           H   tau(  95) = (   0.9042445   0.7386275   0.2474213  )
        96           H   tau(  96) = (   0.9042445   0.7386275   0.7422612  )

     number of k points=    16
                       cart. coord. in units 2pi/alat
        k(    1) = (   0.1250000   0.1283375   0.1263031), wk =   0.1250000
        k(    2) = (   0.1250000   0.1283375   0.3789094), wk =   0.1250000
        k(    3) = (   0.1250000   0.3850126   0.1263031), wk =   0.1250000
        k(    4) = (   0.1250000   0.3850126   0.3789094), wk =   0.1250000
        k(    5) = (   0.3750000   0.1283375   0.1263031), wk =   0.1250000
        k(    6) = (   0.3750000   0.1283375   0.3789094), wk =   0.1250000
        k(    7) = (   0.3750000   0.3850126   0.1263031), wk =   0.1250000
        k(    8) = (   0.3750000   0.3850126   0.3789094), wk =   0.1250000
        k(    9) = (  -0.1250000   0.1283375  -0.1263031), wk =   0.1250000
        k(   10) = (  -0.1250000   0.1283375  -0.3789094), wk =   0.1250000
        k(   11) = (  -0.1250000   0.3850126  -0.1263031), wk =   0.1250000
        k(   12) = (  -0.1250000   0.3850126  -0.3789094), wk =   0.1250000
        k(   13) = (  -0.3750000   0.1283375  -0.1263031), wk =   0.1250000
        k(   14) = (  -0.3750000   0.1283375  -0.3789094), wk =   0.1250000
        k(   15) = (  -0.3750000   0.3850126  -0.1263031), wk =   0.1250000
        k(   16) = (  -0.3750000   0.3850126  -0.3789094), wk =   0.1250000

     Dense  grid:  2527593 G-vectors     FFT dimensions: ( 180, 180, 180)

     Estimated max dynamical RAM per process >       2.62 GB

     Estimated total dynamical RAM >      41.90 GB

     Initial potential from superposition of free atoms

     starting charge  431.97851, renormalised to  432.00000
     Starting wfcs are  304 randomized atomic wfcs
     Checking if some PAW data can be deallocated... 

     total cpu time spent up to now is     1354.8 secs

     Self-consistent Calculation

     iteration #  1     ecut=   120.00 Ry     beta= 0.70
     Davidson diagonalization with overlap
     ethr =  1.00E-02,  avg # of iterations =  2.0

     total cpu time spent up to now is     4095.1 secs

     total energy              =  -16704.90978496 Ry
     Harris-Foulkes estimate   =  -16709.23160815 Ry
     estimated scf accuracy    <       6.86958857 Ry

     iteration #  2     ecut=   120.00 Ry     beta= 0.70
     Davidson diagonalization with overlap
     ethr =  1.59E-03,  avg # of iterations =  4.0

     total cpu time spent up to now is     7656.9 secs

     total energy              =  -16706.46524341 Ry
     Harris-Foulkes estimate   =  -16708.54128470 Ry
     estimated scf accuracy    <       3.86088922 Ry

     iteration #  3     ecut=   120.00 Ry     beta= 0.70
     Davidson diagonalization with overlap
     ethr =  8.94E-04,  avg # of iterations =  3.0

     total cpu time spent up to now is    10415.5 secs

     total energy              =  -16707.31921207 Ry
     Harris-Foulkes estimate   =  -16707.38856420 Ry
     estimated scf accuracy    <       0.14903759 Ry

     iteration #  4     ecut=   120.00 Ry     beta= 0.70
     Davidson diagonalization with overlap
     ethr =  3.45E-05,  avg # of iterations =  4.0

     total cpu time spent up to now is    14048.5 secs

     total energy              =  -16707.36616311 Ry
     Harris-Foulkes estimate   =  -16707.38731930 Ry
     estimated scf accuracy    <       0.04144807 Ry

     iteration #  5     ecut=   120.00 Ry     beta= 0.70
     Davidson diagonalization with overlap
     ethr =  9.59E-06,  avg # of iterations =  3.0

     total cpu time spent up to now is    16993.5 secs

     total energy              =  -16707.37413860 Ry
     Harris-Foulkes estimate   =  -16707.37449498 Ry
     estimated scf accuracy    <       0.00092387 Ry

     iteration #  6     ecut=   120.00 Ry     beta= 0.70
     Davidson diagonalization with overlap
     ethr =  2.14E-07,  avg # of iterations =  3.9

     total cpu time spent up to now is    20636.7 secs

     total energy              =  -16707.37447018 Ry
     Harris-Foulkes estimate   =  -16707.37455219 Ry
     estimated scf accuracy    <       0.00016856 Ry

     iteration #  7     ecut=   120.00 Ry     beta= 0.70
     Davidson diagonalization with overlap
     ethr =  3.90E-08,  avg # of iterations =  3.0

     total cpu time spent up to now is    23565.1 secs

     total energy              =  -16707.37450890 Ry
     Harris-Foulkes estimate   =  -16707.37453316 Ry
     estimated scf accuracy    <       0.00005106 Ry

     iteration #  8     ecut=   120.00 Ry     beta= 0.70
     Davidson diagonalization with overlap
     ethr =  1.18E-08,  avg # of iterations =  3.7

     total cpu time spent up to now is    26318.2 secs

     total energy              =  -16707.37452067 Ry
     Harris-Foulkes estimate   =  -16707.37452848 Ry
     estimated scf accuracy    <       0.00001870 Ry

     iteration #  9     ecut=   120.00 Ry     beta= 0.70
     Davidson diagonalization with overlap
     ethr =  4.33E-09,  avg # of iterations =  3.2

     total cpu time spent up to now is    28819.5 secs

     total energy              =  -16707.37452448 Ry
     Harris-Foulkes estimate   =  -16707.37452497 Ry
     estimated scf accuracy    <       0.00000110 Ry

     iteration # 10     ecut=   120.00 Ry     beta= 0.70
     Davidson diagonalization with overlap
     ethr =  2.55E-10,  avg # of iterations =  4.0

     total cpu time spent up to now is    31839.8 secs

     total energy              =  -16707.37452474 Ry
     Harris-Foulkes estimate   =  -16707.37452485 Ry
     estimated scf accuracy    <       0.00000024 Ry

     iteration # 11     ecut=   120.00 Ry     beta= 0.70
     Davidson diagonalization with overlap
     ethr =  5.59E-11,  avg # of iterations =  4.0

     total cpu time spent up to now is    34707.7 secs

     End of self-consistent calculation

          k = 0.1250 0.1283 0.1263 (315917 PWs)   bands (ev):

   -18.2231 -18.2230 -18.2222 -18.2221 -18.2153 -18.2152 -18.2144 -18.2144
   -16.0653 -16.0649 -16.0638 -16.0635 -16.0419 -16.0418 -16.0412 -16.0411
   -14.3383 -14.3372 -14.3354 -14.3340 -14.3280 -14.3270 -14.3249 -14.3234
   -14.2903 -14.2902 -14.2847 -14.2844 -14.2827 -14.2826 -14.2804 -14.2803
   -14.2801 -14.2799 -14.2799 -14.2798 -14.2796 -14.2795 -14.2788 -14.2785
   -14.2784 -14.2783 -14.2781 -14.2779 -14.2779 -14.2776 -14.2774 -14.2774
   -14.2437 -14.2436 -14.2432 -14.2432 -14.2432 -14.2431 -14.2427 -14.2427
   -10.1283 -10.0781 -10.0603 -10.0356  -9.9491  -9.9476  -9.9442  -9.9413
    -9.8071  -9.7766  -9.7683  -9.7440  -9.7292  -9.7114  -9.7084  -9.6389
    -9.3004  -9.1593  -9.1114  -9.1033  -9.0803  -9.0778  -9.0738  -9.0405
    -8.9540  -8.9134  -8.9130  -8.9081  -8.9052  -8.8909  -8.7747  -8.7742
    -8.1078  -8.1008  -8.0822  -8.0688  -8.0421  -8.0341  -8.0323  -8.0318
    -7.4789  -7.4775  -7.4635  -7.4632  -7.4612  -7.4591  -7.4589  -7.4565
    -5.9692  -5.8311  -5.8277  -5.8084  -5.8003  -5.6171  -5.6167  -5.6108
    -5.6104  -5.5575  -5.5136  -5.4252  -5.1228  -5.0414  -4.9829  -4.5979
    -4.1902  -4.1760  -4.1713  -4.1551  -4.1268  -4.1267  -4.1116  -4.1111
    -3.5940  -3.5833  -3.5793  -3.5703  -3.5656  -3.5648  -3.5599  -3.5597
    -1.1839  -1.1224  -1.0398  -0.9739  -0.9129  -0.8436  -0.7771  -0.7444
    -0.7056  -0.6960  -0.6137  -0.5534  -0.4901  -0.4008  -0.3877  -0.3767
    -0.3703  -0.3669  -0.3565  -0.2467  -0.0421   0.0302   0.1378   0.1637
     0.1938   0.1961   0.2995   0.3110   0.3299   0.3598   0.4190   0.5053
     0.6247   0.6461   0.6658   0.6785   0.6894   0.6925   0.7005   0.7341
     0.7679   0.8214   1.0017   1.0311   1.0823   1.0886   1.1047   1.1127
     1.1349   1.1396   1.1568   1.1939   1.1978   1.2295   1.2393   1.2856
     1.3085   1.3545   1.3705   1.3878   1.3898   1.4128   1.4357   1.4382
     1.4455   1.4612   1.5099   1.5352   1.5582   1.5595   1.5725   1.6012
     1.6254   1.6603   1.7794   1.8232   1.9222   1.9411   1.9758   2.1146

          k = 0.1250 0.1283 0.3789 (315918 PWs)   bands (ev):

   -18.2231 -18.2230 -18.2221 -18.2221 -18.2153 -18.2152 -18.2144 -18.2144
   -16.0651 -16.0650 -16.0637 -16.0636 -16.0419 -16.0418 -16.0411 -16.0411
   -14.3353 -14.3342 -14.3324 -14.3310 -14.3308 -14.3300 -14.3280 -14.3265
   -14.2903 -14.2902 -14.2847 -14.2845 -14.2827 -14.2826 -14.2803 -14.2802
   -14.2801 -14.2800 -14.2798 -14.2797 -14.2796 -14.2795 -14.2787 -14.2786
   -14.2783 -14.2782 -14.2781 -14.2780 -14.2778 -14.2777 -14.2774 -14.2774
   -14.2437 -14.2436 -14.2432 -14.2432 -14.2432 -14.2431 -14.2427 -14.2427
   -10.1135 -10.0926 -10.0530 -10.0427  -9.9477  -9.9456  -9.9453  -9.9427
    -9.7827  -9.7596  -9.7573  -9.7424  -9.7411  -9.7328  -9.7227  -9.6819
    -9.2326  -9.1570  -9.1194  -9.0925  -9.0806  -9.0794  -9.0783  -9.0708
    -8.9351  -8.9132  -8.9131  -8.9088  -8.9073  -8.9061  -8.7746  -8.7744
    -8.1059  -8.1030  -8.0784  -8.0729  -8.0397  -8.0364  -8.0321  -8.0320
    -7.4785  -7.4780  -7.4634  -7.4633  -7.4598  -7.4591  -7.4590  -7.4579
    -5.8621  -5.8320  -5.8303  -5.8083  -5.7920  -5.6552  -5.6170  -5.6168
    -5.6107  -5.6105  -5.4451  -5.3095  -5.2670  -5.1288  -4.9303  -4.7494
    -4.1862  -4.1804  -4.1666  -4.1599  -4.1268  -4.1267  -4.1114  -4.1112
    -3.5833  -3.5780  -3.5737  -3.5708  -3.5692  -3.5686  -3.5665  -3.5655
    -0.9023  -0.8842  -0.8293  -0.7682  -0.7550  -0.7319  -0.7130  -0.6697
    -0.6317  -0.6003  -0.5624  -0.5141  -0.5134  -0.4728  -0.4570  -0.4002
    -0.3856  -0.3312  -0.3103  -0.2459  -0.0298   0.0067   0.0619   0.0814
     0.0852   0.1505   0.1519   0.1650   0.2084   0.2231   0.2665   0.2738
     0.4235   0.4656   0.5377   0.5408   0.5840   0.6170   0.6574   0.7165
     0.7398   0.7437   1.0405   1.0507   1.0839   1.1023   1.1107   1.1122
     1.2052   1.2169   1.2355   1.2393   1.2645   1.3089   1.3114   1.3189
     1.3275   1.3376   1.3551   1.3570   1.3699   1.3758   1.3899   1.4029
     1.4284   1.4288   1.4652   1.4927   1.5264   1.5353   1.5787   1.6019
     1.6226   1.6763   1.6820   1.7317   1.9295   1.9416   1.9731   1.9926

          k = 0.1250 0.3850 0.1263 (315942 PWs)   bands (ev):

   -18.2230 -18.2229 -18.2223 -18.2222 -18.2152 -18.2151 -18.2145 -18.2144
   -16.0649 -16.0646 -16.0641 -16.0638 -16.0418 -16.0417 -16.0412 -16.0411
   -14.3373 -14.3362 -14.3361 -14.3348 -14.3270 -14.3258 -14.3257 -14.3243
   -14.2882 -14.2881 -14.2850 -14.2850 -14.2827 -14.2825 -14.2804 -14.2803
   -14.2801 -14.2799 -14.2799 -14.2798 -14.2797 -14.2796 -14.2796 -14.2795
   -14.2787 -14.2785 -14.2783 -14.2783 -14.2781 -14.2780 -14.2779 -14.2777
   -14.2436 -14.2435 -14.2434 -14.2432 -14.2431 -14.2430 -14.2428 -14.2428
   -10.1106 -10.0828 -10.0671 -10.0496  -9.9484  -9.9476  -9.9434  -9.9421
    -9.7967  -9.7807  -9.7637  -9.7505  -9.7230  -9.7144  -9.6885  -9.6585
    -9.2618  -9.1898  -9.1383  -9.1079  -9.1058  -9.0942  -9.0663  -9.0508
    -8.9121  -8.9099  -8.9096  -8.9065  -8.8730  -8.8485  -8.8084  -8.8021
    -8.0999  -8.0904  -8.0893  -8.0772  -8.0392  -8.0351  -8.0334  -8.0324
    -7.4736  -7.4712  -7.4663  -7.4625  -7.4622  -7.4620  -7.4604  -7.4602
    -5.8333  -5.8252  -5.8203  -5.8091  -5.8059  -5.6154  -5.6149  -5.6126
    -5.6121  -5.6001  -5.4243  -5.3756  -5.2130  -5.1586  -4.9914  -4.7775
    -4.1721  -4.1618  -4.1537  -4.1457  -4.1425  -4.1413  -4.1288  -4.1243
    -3.5909  -3.5864  -3.5767  -3.5729  -3.5639  -3.5634  -3.5614  -3.5613
    -1.1353  -1.0997  -1.0655  -1.0520  -0.7152  -0.6646  -0.6570  -0.5831
    -0.4907  -0.4834  -0.4521  -0.4065  -0.4002  -0.3933  -0.3630  -0.3581
    -0.3322  -0.3114  -0.2637  -0.2444  -0.0179   0.0277   0.0291   0.0913
     0.1724   0.1772   0.1845   0.2391   0.3077   0.3206   0.3343   0.4264
     0.4437   0.4829   0.6453   0.6856   0.7462   0.7591   0.7691   0.7809
     0.7891   0.8047   0.8479   0.8595   0.8624   0.9061   0.9261   0.9427
     1.1048   1.1620   1.1812   1.1812   1.1996   1.2018   1.2137   1.3115
     1.3220   1.3234   1.3489   1.3738   1.3747   1.3827   1.4051   1.4187
     1.4529   1.4942   1.5251   1.5418   1.5581   1.5680   1.5757   1.5838
     1.6143   1.6336   1.6411   1.7007   1.7655   1.8033   1.8599   1.8771

          k = 0.1250 0.3850 0.3789 (315876 PWs)   bands (ev):

   -18.2230 -18.2229 -18.2223 -18.2222 -18.2152 -18.2152 -18.2145 -18.2144
   -16.0648 -16.0647 -16.0640 -16.0639 -16.0418 -16.0418 -16.0412 -16.0412
   -14.3343 -14.3331 -14.3331 -14.3317 -14.3300 -14.3288 -14.3287 -14.3274
   -14.2881 -14.2881 -14.2850 -14.2850 -14.2826 -14.2826 -14.2803 -14.2802
   -14.2801 -14.2800 -14.2798 -14.2797 -14.2796 -14.2796 -14.2796 -14.2795
   -14.2786 -14.2785 -14.2783 -14.2782 -14.2781 -14.2780 -14.2779 -14.2778
   -14.2436 -14.2435 -14.2434 -14.2432 -14.2431 -14.2430 -14.2428 -14.2428
   -10.0977 -10.0796 -10.0729 -10.0592  -9.9469  -9.9458  -9.9448  -9.9435
    -9.7756  -9.7651  -9.7454  -9.7418  -9.7413  -9.7304  -9.7148  -9.6939
    -9.2080  -9.1567  -9.1457  -9.1176  -9.1094  -9.0929  -9.0766  -9.0735
    -8.9114  -8.9103  -8.9089  -8.9075  -8.8665  -8.8563  -8.8068  -8.8042
    -8.0973  -8.0933  -8.0859  -8.0809  -8.0375  -8.0351  -8.0343  -8.0332
    -7.4730  -7.4720  -7.4652  -7.4637  -7.4622  -7.4621  -7.4603  -7.4602
    -5.8266  -5.8237  -5.8224  -5.8144  -5.6969  -5.6153  -5.6151  -5.6125
    -5.6123  -5.5181  -5.4825  -5.3132  -5.3023  -5.1360  -5.1026  -4.9246
    -4.1692  -4.1650  -4.1504  -4.1458  -4.1445  -4.1427  -4.1275  -4.1256
    -3.5818  -3.5795  -3.5723  -3.5704  -3.5701  -3.5695  -3.5664  -3.5656
    -0.8103  -0.7225  -0.7160  -0.6898  -0.6733  -0.6652  -0.6217  -0.5957
    -0.5127  -0.4779  -0.4260  -0.4239  -0.4235  -0.3756  -0.3628  -0.3528
    -0.3397  -0.3296  -0.3212  -0.2486  -0.0620  -0.0008   0.0202   0.0213
     0.0500   0.0635   0.1482   0.1502   0.2129   0.2188   0.2686   0.2722
     0.4199   0.4528   0.5353   0.5652   0.5800   0.5831   0.6816   0.6954
     0.7027   0.7058   0.7567   0.7674   0.7961   0.8075   0.9168   0.9198
     1.2058   1.2218   1.2492   1.2789   1.2950   1.3032   1.3061   1.3170
     1.3222   1.3358   1.3556   1.3700   1.3724   1.3725   1.3749   1.4115
     1.4343   1.4420   1.4529   1.4719   1.5389   1.5677   1.5809   1.5835
     1.5984   1.6024   1.6481   1.6778   1.7035   1.7244   1.8486   1.8544

          k = 0.3750 0.1283 0.1263 (315963 PWs)   bands (ev):

   -18.2209 -18.2207 -18.2199 -18.2198 -18.2176 -18.2175 -18.2167 -18.2166
   -16.0584 -16.0581 -16.0572 -16.0569 -16.0487 -16.0486 -16.0478 -16.0476
   -14.3380 -14.3374 -14.3350 -14.3343 -14.3277 -14.3272 -14.3244 -14.3237
   -14.2887 -14.2885 -14.2864 -14.2861 -14.2812 -14.2811 -14.2804 -14.2803
   -14.2800 -14.2800 -14.2799 -14.2798 -14.2796 -14.2795 -14.2790 -14.2789
   -14.2788 -14.2785 -14.2784 -14.2783 -14.2781 -14.2779 -14.2779 -14.2776
   -14.2436 -14.2436 -14.2432 -14.2432 -14.2432 -14.2431 -14.2428 -14.2427
   -10.0865 -10.0437 -10.0319 -10.0163 -10.0116  -9.9886  -9.9868  -9.9743
    -9.7733  -9.7699  -9.7654  -9.7519  -9.7200  -9.7133  -9.6807  -9.6535
    -9.2686  -9.2131  -9.0983  -9.0958  -9.0863  -9.0766  -9.0748  -9.0722
    -8.9436  -8.9267  -8.9066  -8.8973  -8.8568  -8.8545  -8.8045  -8.8034
    -8.0872  -8.0828  -8.0744  -8.0622  -8.0581  -8.0559  -8.0544  -8.0479
    -7.4729  -7.4719  -7.4646  -7.4643  -7.4597  -7.4590  -7.4587  -7.4560
    -5.8565  -5.7661  -5.7630  -5.7522  -5.7449  -5.6876  -5.6749  -5.6734
    -5.6719  -5.6692  -5.4110  -5.3236  -5.2499  -5.1657  -4.8844  -4.7264
    -4.1835  -4.1757  -4.1689  -4.1603  -4.1223  -4.1221  -4.1159  -4.1155
    -3.5856  -3.5766  -3.5753  -3.5735  -3.5696  -3.5673  -3.5669  -3.5629
    -1.1640  -1.1386  -1.0210  -0.9934  -0.8954  -0.8658  -0.7559  -0.7216
    -0.5152  -0.5055  -0.4346  -0.4294  -0.4252  -0.4219  -0.4071  -0.3753
    -0.3372  -0.2793  -0.0695  -0.0514  -0.0165   0.0096   0.0693   0.1275
     0.1576   0.1996   0.2186   0.2273   0.2917   0.3475   0.3640   0.3741
     0.4089   0.5199   0.6303   0.6503   0.7155   0.7444   0.7745   0.7789
     0.7861   0.8181   0.8594   0.8653   0.9084   0.9411   0.9439   1.0082
     1.1176   1.1726   1.1755   1.2033   1.2609   1.2702   1.2805   1.2879
     1.3258   1.3552   1.3610   1.3716   1.3861   1.3951   1.4145   1.4353
     1.4402   1.4533   1.4662   1.4762   1.5372   1.5697   1.5791   1.6198
     1.6237   1.6261   1.6830   1.7316   1.8023   1.8523   1.8715   1.9163

          k = 0.3750 0.1283 0.3789 (315883 PWs)   bands (ev):

   -18.2208 -18.2208 -18.2199 -18.2199 -18.2176 -18.2175 -18.2167 -18.2166
   -16.0583 -16.0582 -16.0571 -16.0570 -16.0487 -16.0486 -16.0478 -16.0477
   -14.3350 -14.3344 -14.3319 -14.3312 -14.3307 -14.3302 -14.3275 -14.3268
   -14.2887 -14.2886 -14.2863 -14.2862 -14.2812 -14.2811 -14.2803 -14.2802
   -14.2801 -14.2799 -14.2799 -14.2798 -14.2797 -14.2796 -14.2790 -14.2790
   -14.2787 -14.2786 -14.2783 -14.2782 -14.2781 -14.2780 -14.2778 -14.2777
   -14.2436 -14.2436 -14.2432 -14.2432 -14.2432 -14.2431 -14.2428 -14.2427
   -10.0735 -10.0558 -10.0259 -10.0175 -10.0074  -9.9959  -9.9830  -9.9779
    -9.7549  -9.7530  -9.7524  -9.7343  -9.7315  -9.7311  -9.7152  -9.6923
    -9.2088  -9.1650  -9.1401  -9.1076  -9.0883  -9.0829  -9.0799  -9.0789
    -8.9295  -8.9205  -8.9121  -8.9103  -8.8561  -8.8552  -8.8042  -8.8038
    -8.0860  -8.0842  -8.0710  -8.0659  -8.0557  -8.0551  -8.0549  -8.0510
    -7.4726  -7.4722  -7.4645  -7.4644  -7.4595  -7.4592  -7.4579  -7.4568
    -5.7664  -5.7650  -5.7649  -5.7492  -5.7240  -5.6749  -5.6742  -5.6728
    -5.6707  -5.5718  -5.5539  -5.3932  -5.2103  -5.0543  -5.0308  -4.8750
    -4.1794  -4.1734  -4.1712  -4.1648  -4.1222  -4.1221  -4.1158  -4.1157
    -3.5784  -3.5744  -3.5728  -3.5716  -3.5714  -3.5692  -3.5691  -3.5688
    -0.8900  -0.8786  -0.8101  -0.7784  -0.7598  -0.7196  -0.6173  -0.6007
    -0.5139  -0.4957  -0.4653  -0.4591  -0.4503  -0.4399  -0.4327  -0.3019
    -0.2435  -0.2183  -0.2067  -0.1642   0.0127   0.0242   0.0276   0.0945
     0.1068   0.1120   0.1164   0.1220   0.1296   0.1824   0.1929   0.2017
     0.4249   0.4496   0.5455   0.5678   0.5692   0.5696   0.6862   0.7128
     0.7328   0.7621   0.7837   0.8226   0.8291   0.8410   0.9412   0.9692
     1.2180   1.2284   1.2365   1.2726   1.2788   1.3103   1.3314   1.3474
     1.3514   1.3541   1.3543   1.3612   1.3641   1.3671   1.3765   1.4003
     1.4362   1.4465   1.4471   1.4534   1.5479   1.5803   1.5805   1.5889
     1.5978   1.6054   1.6862   1.7160   1.7434   1.7750   1.8713   1.8747

          k = 0.3750 0.3850 0.1263 (315870 PWs)   bands (ev):

   -18.2208 -18.2206 -18.2200 -18.2199 -18.2175 -18.2174 -18.2168 -18.2167
   -16.0582 -16.0579 -16.0574 -16.0572 -16.0486 -16.0484 -16.0480 -16.0478
   -14.3370 -14.3364 -14.3358 -14.3351 -14.3267 -14.3261 -14.3253 -14.3246
   -14.2866 -14.2865 -14.2843 -14.2842 -14.2835 -14.2834 -14.2812 -14.2812
   -14.2804 -14.2803 -14.2800 -14.2800 -14.2799 -14.2798 -14.2796 -14.2795
   -14.2787 -14.2785 -14.2783 -14.2783 -14.2781 -14.2780 -14.2779 -14.2777
   -14.2435 -14.2435 -14.2433 -14.2432 -14.2431 -14.2431 -14.2429 -14.2428
   -10.0719 -10.0495 -10.0353 -10.0221 -10.0078  -9.9955  -9.9848  -9.9789
    -9.7712  -9.7680  -9.7627  -9.7555  -9.7080  -9.6946  -9.6918  -9.6699
    -9.2331  -9.1841  -9.1684  -9.1342  -9.0964  -9.0877  -9.0766  -9.0746
    -8.8955  -8.8907  -8.8810  -8.8703  -8.8683  -8.8649  -8.8298  -8.8275
    -8.0831  -8.0778  -8.0760  -8.0674  -8.0574  -8.0564  -8.0521  -8.0494
    -7.4687  -7.4671  -7.4633  -7.4628  -7.4627  -7.4612  -7.4606  -7.4604
    -5.7626  -5.7588  -5.7582  -5.7508  -5.7132  -5.6747  -5.6736  -5.6725
    -5.6706  -5.5506  -5.4967  -5.3373  -5.2753  -5.1172  -5.0601  -4.9035
    -4.1659  -4.1583  -4.1555  -4.1474  -4.1404  -4.1361  -4.1333  -4.1290
    -3.5830  -3.5792  -3.5730  -3.5716  -3.5696  -3.5688  -3.5676  -3.5648
    -1.1223  -1.1077  -1.0593  -1.0533  -0.5259  -0.5039  -0.4740  -0.4617
    -0.4576  -0.4295  -0.4142  -0.4142  -0.4013  -0.3990  -0.3289  -0.3131
    -0.2980  -0.2752  -0.0685  -0.0512  -0.0289   0.0167   0.0542   0.0711
     0.1035   0.1645   0.1938   0.2065   0.2235   0.2399   0.3400   0.3460
     0.3750   0.3883   0.4424   0.5120   0.6498   0.6671   0.7746   0.7941
     0.7954   0.8469   0.8639   0.8725   0.8867   0.9323   0.9638   0.9876
     1.1478   1.1648   1.1903   1.2011   1.2157   1.2264   1.2275   1.2368
     1.2759   1.2876   1.2932   1.2957   1.3194   1.3346   1.3474   1.3531
     1.3566   1.3824   1.3836   1.3864   1.4171   1.4566   1.4786   1.4983
     1.6635   1.6863   1.7057   1.7096   1.7193   1.7392   1.8140   1.8166

          k = 0.3750 0.3850 0.3789 (315900 PWs)   bands (ev):

   -18.2207 -18.2207 -18.2200 -18.2199 -18.2175 -18.2175 -18.2168 -18.2167
   -16.0581 -16.0580 -16.0574 -16.0572 -16.0486 -16.0485 -16.0479 -16.0478
   -14.3340 -14.3334 -14.3327 -14.3321 -14.3297 -14.3291 -14.3284 -14.3277
   -14.2866 -14.2865 -14.2843 -14.2842 -14.2835 -14.2834 -14.2812 -14.2812
   -14.2803 -14.2802 -14.2801 -14.2799 -14.2799 -14.2798 -14.2797 -14.2796
   -14.2786 -14.2785 -14.2783 -14.2782 -14.2781 -14.2780 -14.2779 -14.2778
   -14.2435 -14.2435 -14.2433 -14.2432 -14.2431 -14.2431 -14.2429 -14.2428
   -10.0608 -10.0456 -10.0412 -10.0299 -10.0005  -9.9910  -9.9904  -9.9835
    -9.7525  -9.7522  -9.7458  -9.7362  -9.7279  -9.7199  -9.7180  -9.7018
    -9.1861  -9.1474  -9.1408  -9.1305  -9.1150  -9.1078  -9.1026  -9.0913
    -8.8943  -8.8923  -8.8767  -8.8700  -8.8697  -8.8689  -8.8293  -8.8283
    -8.0812  -8.0782  -8.0749  -8.0706  -8.0554  -8.0549  -8.0535  -8.0518
    -7.4683  -7.4676  -7.4631  -7.4629  -7.4622  -7.4613  -7.4610  -7.4607
    -5.7628  -5.7606  -5.7585  -5.7542  -5.6745  -5.6735  -5.6733  -5.6719
    -5.5967  -5.4379  -5.4179  -5.3824  -5.2604  -5.2259  -5.2039  -5.0486
    -4.1629  -4.1586  -4.1551  -4.1506  -4.1391  -4.1373  -4.1321  -4.1303
    -3.5773  -3.5755  -3.5717  -3.5709  -3.5709  -3.5700  -3.5698  -3.5696
    -0.7829  -0.7451  -0.6967  -0.6744  -0.5124  -0.4982  -0.4798  -0.4667
    -0.4647  -0.4423  -0.4264  -0.4132  -0.4016  -0.3930  -0.3674  -0.2999
    -0.2509  -0.2119  -0.2021  -0.1753  -0.0208  -0.0151   0.0076   0.0431
     0.0478   0.0918   0.0980   0.0998   0.1422   0.1822   0.1999   0.2003
     0.4011   0.4140   0.5079   0.5405   0.5569   0.5602   0.6082   0.6619
     0.6934   0.7030   0.7754   0.7907   0.7964   0.8171   0.8216   0.8282
     1.2020   1.2154   1.2162   1.2168   1.2356   1.2516   1.2574   1.2601
     1.2718   1.3086   1.3206   1.3221   1.3256   1.3363   1.3431   1.3615
     1.3643   1.3685   1.3756   1.3780   1.3855   1.3957   1.4457   1.4471
     1.6705   1.6798   1.7115   1.7143   1.7145   1.7264   1.8155   1.8166

          k =-0.1250 0.1283-0.1263 (315917 PWs)   bands (ev):

   -18.2231 -18.2230 -18.2222 -18.2221 -18.2153 -18.2152 -18.2144 -18.2144
   -16.0653 -16.0649 -16.0638 -16.0635 -16.0419 -16.0418 -16.0412 -16.0411
   -14.3383 -14.3372 -14.3354 -14.3340 -14.3280 -14.3270 -14.3249 -14.3234
   -14.2903 -14.2902 -14.2847 -14.2844 -14.2827 -14.2826 -14.2804 -14.2803
   -14.2801 -14.2799 -14.2799 -14.2798 -14.2796 -14.2795 -14.2788 -14.2785
   -14.2784 -14.2783 -14.2781 -14.2779 -14.2779 -14.2776 -14.2774 -14.2774
   -14.2437 -14.2436 -14.2432 -14.2432 -14.2432 -14.2431 -14.2427 -14.2427
   -10.1283 -10.0781 -10.0603 -10.0356  -9.9491  -9.9476  -9.9442  -9.9413
    -9.8071  -9.7766  -9.7683  -9.7440  -9.7292  -9.7114  -9.7084  -9.6389
    -9.3004  -9.1593  -9.1114  -9.1033  -9.0803  -9.0778  -9.0738  -9.0405
    -8.9540  -8.9134  -8.9130  -8.9081  -8.9052  -8.8908  -8.7747  -8.7742
    -8.1078  -8.1008  -8.0822  -8.0688  -8.0421  -8.0341  -8.0323  -8.0318
    -7.4789  -7.4775  -7.4635  -7.4632  -7.4612  -7.4591  -7.4589  -7.4565
    -5.9692  -5.8310  -5.8277  -5.8084  -5.8003  -5.6171  -5.6167  -5.6108
    -5.6104  -5.5575  -5.5136  -5.4252  -5.1228  -5.0414  -4.9829  -4.5979
    -4.1902  -4.1760  -4.1713  -4.1551  -4.1268  -4.1267  -4.1116  -4.1111
    -3.5940  -3.5833  -3.5793  -3.5703  -3.5656  -3.5648  -3.5599  -3.5597
    -1.1839  -1.1224  -1.0398  -0.9739  -0.9128  -0.8436  -0.7770  -0.7445
    -0.7057  -0.6960  -0.6137  -0.5534  -0.4901  -0.4008  -0.3877  -0.3767
    -0.3703  -0.3668  -0.3565  -0.2467  -0.0421   0.0302   0.1378   0.1637
     0.1938   0.1961   0.2995   0.3110   0.3299   0.3598   0.4189   0.5053
     0.6247   0.6461   0.6658   0.6785   0.6895   0.6925   0.7005   0.7341
     0.7679   0.8214   1.0017   1.0311   1.0823   1.0886   1.1047   1.1126
     1.1350   1.1395   1.1568   1.1939   1.1979   1.2295   1.2393   1.2856
     1.3085   1.3546   1.3705   1.3878   1.3899   1.4127   1.4357   1.4382
     1.4455   1.4612   1.5099   1.5352   1.5582   1.5595   1.5724   1.6013
     1.6254   1.6603   1.7794   1.8232   1.9222   1.9411   1.9758   2.1145

          k =-0.1250 0.1283-0.3789 (315918 PWs)   bands (ev):

   -18.2231 -18.2230 -18.2221 -18.2221 -18.2153 -18.2152 -18.2144 -18.2144
   -16.0651 -16.0650 -16.0637 -16.0636 -16.0419 -16.0418 -16.0411 -16.0411
   -14.3353 -14.3342 -14.3324 -14.3310 -14.3308 -14.3300 -14.3280 -14.3265
   -14.2903 -14.2902 -14.2847 -14.2845 -14.2827 -14.2826 -14.2803 -14.2802
   -14.2801 -14.2800 -14.2798 -14.2797 -14.2796 -14.2795 -14.2787 -14.2786
   -14.2783 -14.2782 -14.2781 -14.2780 -14.2778 -14.2777 -14.2774 -14.2774
   -14.2437 -14.2436 -14.2432 -14.2432 -14.2432 -14.2431 -14.2427 -14.2427
   -10.1135 -10.0926 -10.0530 -10.0427  -9.9477  -9.9456  -9.9453  -9.9427
    -9.7827  -9.7597  -9.7573  -9.7424  -9.7411  -9.7328  -9.7227  -9.6819
    -9.2326  -9.1570  -9.1194  -9.0925  -9.0806  -9.0794  -9.0783  -9.0708
    -8.9351  -8.9132  -8.9131  -8.9088  -8.9073  -8.9061  -8.7746  -8.7744
    -8.1059  -8.1030  -8.0784  -8.0729  -8.0397  -8.0364  -8.0321  -8.0320
    -7.4785  -7.4780  -7.4634  -7.4633  -7.4598  -7.4591  -7.4590  -7.4579
    -5.8621  -5.8320  -5.8303  -5.8083  -5.7920  -5.6552  -5.6170  -5.6168
    -5.6107  -5.6105  -5.4451  -5.3095  -5.2670  -5.1288  -4.9303  -4.7494
    -4.1862  -4.1804  -4.1666  -4.1599  -4.1268  -4.1267  -4.1114  -4.1112
    -3.5833  -3.5780  -3.5737  -3.5708  -3.5692  -3.5686  -3.5665  -3.5655
    -0.9023  -0.8842  -0.8292  -0.7682  -0.7550  -0.7317  -0.7131  -0.6699
    -0.6317  -0.6003  -0.5625  -0.5141  -0.5133  -0.4728  -0.4570  -0.4002
    -0.3855  -0.3312  -0.3103  -0.2459  -0.0298   0.0067   0.0619   0.0814
     0.0852   0.1504   0.1520   0.1650   0.2084   0.2232   0.2665   0.2738
     0.4235   0.4656   0.5377   0.5408   0.5840   0.6170   0.6574   0.7164
     0.7398   0.7437   1.0406   1.0507   1.0838   1.1024   1.1107   1.1122
     1.2052   1.2169   1.2355   1.2393   1.2645   1.3091   1.3114   1.3188
     1.3275   1.3375   1.3551   1.3569   1.3698   1.3757   1.3899   1.4029
     1.4283   1.4288   1.4652   1.4927   1.5265   1.5353   1.5787   1.6019
     1.6226   1.6763   1.6820   1.7317   1.9295   1.9417   1.9730   1.9925

          k =-0.1250 0.3850-0.1263 (315942 PWs)   bands (ev):

   -18.2230 -18.2229 -18.2223 -18.2222 -18.2152 -18.2151 -18.2145 -18.2144
   -16.0649 -16.0646 -16.0641 -16.0638 -16.0418 -16.0417 -16.0412 -16.0411
   -14.3373 -14.3362 -14.3361 -14.3348 -14.3270 -14.3258 -14.3257 -14.3243
   -14.2882 -14.2881 -14.2850 -14.2850 -14.2827 -14.2825 -14.2804 -14.2803
   -14.2801 -14.2799 -14.2799 -14.2798 -14.2797 -14.2796 -14.2796 -14.2795
   -14.2787 -14.2785 -14.2783 -14.2783 -14.2781 -14.2780 -14.2779 -14.2777
   -14.2436 -14.2435 -14.2434 -14.2432 -14.2431 -14.2430 -14.2428 -14.2428
   -10.1106 -10.0828 -10.0671 -10.0496  -9.9484  -9.9476  -9.9434  -9.9421
    -9.7967  -9.7806  -9.7637  -9.7505  -9.7230  -9.7144  -9.6885  -9.6585
    -9.2618  -9.1898  -9.1383  -9.1079  -9.1058  -9.0942  -9.0663  -9.0508
    -8.9121  -8.9099  -8.9096  -8.9065  -8.8730  -8.8485  -8.8084  -8.8021
    -8.0999  -8.0904  -8.0893  -8.0772  -8.0392  -8.0351  -8.0334  -8.0324
    -7.4736  -7.4712  -7.4663  -7.4625  -7.4622  -7.4620  -7.4604  -7.4602
    -5.8333  -5.8252  -5.8203  -5.8091  -5.8060  -5.6154  -5.6149  -5.6126
    -5.6122  -5.6001  -5.4243  -5.3756  -5.2130  -5.1586  -4.9914  -4.7775
    -4.1721  -4.1618  -4.1538  -4.1458  -4.1425  -4.1414  -4.1288  -4.1243
    -3.5909  -3.5864  -3.5767  -3.5729  -3.5639  -3.5634  -3.5614  -3.5613
    -1.1353  -1.0998  -1.0655  -1.0520  -0.7150  -0.6646  -0.6570  -0.5831
    -0.4909  -0.4834  -0.4522  -0.4065  -0.4002  -0.3933  -0.3630  -0.3581
    -0.3321  -0.3115  -0.2639  -0.2444  -0.0179   0.0277   0.0291   0.0913
     0.1723   0.1772   0.1845   0.2392   0.3077   0.3206   0.3343   0.4265
     0.4437   0.4829   0.6453   0.6856   0.7463   0.7591   0.7691   0.7807
     0.7892   0.8040   0.8478   0.8601   0.8627   0.9061   0.9261   0.9425
     1.1048   1.1619   1.1812   1.1813   1.1996   1.2018   1.2137   1.3116
     1.3220   1.3234   1.3489   1.3738   1.3747   1.3827   1.4051   1.4187
     1.4529   1.4942   1.5251   1.5418   1.5581   1.5680   1.5757   1.5838
     1.6143   1.6336   1.6410   1.7007   1.7654   1.8033   1.8599   1.8771

          k =-0.1250 0.3850-0.3789 (315876 PWs)   bands (ev):

   -18.2230 -18.2229 -18.2223 -18.2222 -18.2152 -18.2152 -18.2145 -18.2144
   -16.0648 -16.0647 -16.0640 -16.0639 -16.0418 -16.0418 -16.0412 -16.0412
   -14.3343 -14.3331 -14.3331 -14.3317 -14.3300 -14.3288 -14.3287 -14.3274
   -14.2881 -14.2881 -14.2850 -14.2850 -14.2826 -14.2826 -14.2803 -14.2802
   -14.2801 -14.2800 -14.2798 -14.2797 -14.2796 -14.2796 -14.2796 -14.2795
   -14.2786 -14.2785 -14.2783 -14.2782 -14.2781 -14.2780 -14.2779 -14.2778
   -14.2436 -14.2435 -14.2434 -14.2432 -14.2431 -14.2430 -14.2428 -14.2428
   -10.0977 -10.0796 -10.0729 -10.0592  -9.9469  -9.9457  -9.9448  -9.9435
    -9.7756  -9.7651  -9.7454  -9.7418  -9.7413  -9.7304  -9.7148  -9.6939
    -9.2080  -9.1567  -9.1457  -9.1176  -9.1094  -9.0929  -9.0766  -9.0735
    -8.9114  -8.9103  -8.9089  -8.9075  -8.8665  -8.8563  -8.8068  -8.8042
    -8.0973  -8.0933  -8.0859  -8.0809  -8.0375  -8.0351  -8.0343  -8.0332
    -7.4730  -7.4720  -7.4652  -7.4637  -7.4622  -7.4621  -7.4603  -7.4602
    -5.8266  -5.8237  -5.8224  -5.8144  -5.6969  -5.6153  -5.6151  -5.6125
    -5.6123  -5.5181  -5.4825  -5.3132  -5.3023  -5.1359  -5.1026  -4.9246
    -4.1692  -4.1650  -4.1505  -4.1458  -4.1445  -4.1427  -4.1275  -4.1256
    -3.5818  -3.5796  -3.5723  -3.5704  -3.5701  -3.5695  -3.5664  -3.5656
    -0.8103  -0.7231  -0.7160  -0.6891  -0.6733  -0.6649  -0.6220  -0.5957
    -0.5126  -0.4779  -0.4260  -0.4241  -0.4236  -0.3756  -0.3628  -0.3528
    -0.3398  -0.3296  -0.3213  -0.2486  -0.0621  -0.0007   0.0201   0.0212
     0.0501   0.0635   0.1480   0.1504   0.2128   0.2190   0.2687   0.2721
     0.4198   0.4527   0.5353   0.5652   0.5801   0.5831   0.6816   0.6953
     0.7029   0.7057   0.7565   0.7669   0.7966   0.8076   0.9168   0.9198
     1.2058   1.2218   1.2492   1.2789   1.2950   1.3033   1.3061   1.3170
     1.3221   1.3358   1.3556   1.3700   1.3724   1.3724   1.3748   1.4115
     1.4342   1.4421   1.4529   1.4719   1.5389   1.5678   1.5809   1.5835
     1.5984   1.6024   1.6480   1.6777   1.7035   1.7244   1.8486   1.8544

          k =-0.3750 0.1283-0.1263 (315963 PWs)   bands (ev):

   -18.2209 -18.2207 -18.2199 -18.2198 -18.2176 -18.2175 -18.2167 -18.2166
   -16.0584 -16.0581 -16.0572 -16.0569 -16.0487 -16.0486 -16.0478 -16.0476
   -14.3380 -14.3374 -14.3350 -14.3343 -14.3277 -14.3272 -14.3244 -14.3237
   -14.2887 -14.2885 -14.2864 -14.2861 -14.2812 -14.2811 -14.2804 -14.2803
   -14.2800 -14.2800 -14.2799 -14.2798 -14.2796 -14.2795 -14.2790 -14.2789
   -14.2788 -14.2785 -14.2784 -14.2783 -14.2781 -14.2779 -14.2779 -14.2776
   -14.2436 -14.2436 -14.2432 -14.2432 -14.2432 -14.2431 -14.2428 -14.2427
   -10.0865 -10.0437 -10.0319 -10.0163 -10.0116  -9.9886  -9.9868  -9.9743
    -9.7733  -9.7699  -9.7654  -9.7518  -9.7200  -9.7133  -9.6807  -9.6535
    -9.2686  -9.2131  -9.0983  -9.0958  -9.0863  -9.0766  -9.0748  -9.0722
    -8.9436  -8.9267  -8.9066  -8.8973  -8.8568  -8.8545  -8.8045  -8.8034
    -8.0872  -8.0828  -8.0744  -8.0622  -8.0581  -8.0559  -8.0544  -8.0479
    -7.4729  -7.4719  -7.4646  -7.4643  -7.4597  -7.4590  -7.4587  -7.4560
    -5.8565  -5.7661  -5.7630  -5.7522  -5.7449  -5.6876  -5.6750  -5.6734
    -5.6719  -5.6692  -5.4110  -5.3236  -5.2499  -5.1657  -4.8844  -4.7264
    -4.1835  -4.1757  -4.1689  -4.1603  -4.1223  -4.1221  -4.1159  -4.1155
    -3.5856  -3.5766  -3.5753  -3.5735  -3.5696  -3.5673  -3.5669  -3.5629
    -1.1640  -1.1386  -1.0210  -0.9934  -0.8953  -0.8659  -0.7559  -0.7217
    -0.5152  -0.5055  -0.4346  -0.4294  -0.4252  -0.4220  -0.4071  -0.3753
    -0.3372  -0.2794  -0.0696  -0.0514  -0.0165   0.0095   0.0694   0.1277
     0.1577   0.1994   0.2185   0.2273   0.2918   0.3477   0.3639   0.3741
     0.4088   0.5200   0.6304   0.6502   0.7156   0.7444   0.7744   0.7788
     0.7858   0.8182   0.8594   0.8655   0.9085   0.9413   0.9437   1.0082
     1.1176   1.1726   1.1754   1.2033   1.2609   1.2702   1.2805   1.2880
     1.3259   1.3552   1.3610   1.3716   1.3861   1.3952   1.4144   1.4354
     1.4402   1.4533   1.4663   1.4762   1.5373   1.5698   1.5791   1.6198
     1.6237   1.6261   1.6828   1.7316   1.8022   1.8523   1.8715   1.9163

          k =-0.3750 0.1283-0.3789 (315883 PWs)   bands (ev):

   -18.2208 -18.2208 -18.2199 -18.2199 -18.2176 -18.2175 -18.2167 -18.2166
   -16.0583 -16.0582 -16.0571 -16.0570 -16.0487 -16.0486 -16.0478 -16.0477
   -14.3350 -14.3344 -14.3319 -14.3312 -14.3307 -14.3302 -14.3275 -14.3268
   -14.2887 -14.2886 -14.2863 -14.2862 -14.2812 -14.2811 -14.2803 -14.2802
   -14.2801 -14.2799 -14.2799 -14.2798 -14.2797 -14.2796 -14.2790 -14.2790
   -14.2787 -14.2786 -14.2783 -14.2782 -14.2781 -14.2780 -14.2778 -14.2777
   -14.2436 -14.2436 -14.2432 -14.2432 -14.2432 -14.2431 -14.2428 -14.2427
   -10.0736 -10.0558 -10.0259 -10.0175 -10.0074  -9.9959  -9.9831  -9.9779
    -9.7549  -9.7530  -9.7525  -9.7343  -9.7315  -9.7311  -9.7152  -9.6923
    -9.2088  -9.1650  -9.1401  -9.1076  -9.0883  -9.0829  -9.0799  -9.0789
    -8.9296  -8.9205  -8.9121  -8.9103  -8.8561  -8.8552  -8.8042  -8.8038
    -8.0860  -8.0842  -8.0710  -8.0659  -8.0557  -8.0551  -8.0549  -8.0510
    -7.4726  -7.4722  -7.4645  -7.4644  -7.4595  -7.4592  -7.4579  -7.4568
    -5.7664  -5.7650  -5.7648  -5.7492  -5.7240  -5.6749  -5.6742  -5.6728
    -5.6707  -5.5718  -5.5539  -5.3932  -5.2103  -5.0543  -5.0308  -4.8750
    -4.1794  -4.1733  -4.1712  -4.1649  -4.1222  -4.1221  -4.1158  -4.1157
    -3.5784  -3.5744  -3.5728  -3.5716  -3.5714  -3.5692  -3.5691  -3.5688
    -0.8900  -0.8786  -0.8101  -0.7784  -0.7599  -0.7195  -0.6173  -0.6007
    -0.5139  -0.4957  -0.4653  -0.4592  -0.4503  -0.4398  -0.4327  -0.3019
    -0.2435  -0.2183  -0.2067  -0.1642   0.0126   0.0241   0.0276   0.0945
     0.1069   0.1120   0.1164   0.1222   0.1298   0.1823   0.1930   0.2017
     0.4249   0.4496   0.5456   0.5678   0.5692   0.5696   0.6862   0.7129
     0.7326   0.7622   0.7834   0.8226   0.8292   0.8414   0.9412   0.9692
     1.2179   1.2285   1.2365   1.2726   1.2789   1.3103   1.3314   1.3473
     1.3514   1.3541   1.3544   1.3612   1.3641   1.3671   1.3765   1.4004
     1.4363   1.4466   1.4471   1.4534   1.5480   1.5803   1.5806   1.5889
     1.5978   1.6054   1.6861   1.7158   1.7434   1.7750   1.8713   1.8747

          k =-0.3750 0.3850-0.1263 (315870 PWs)   bands (ev):

   -18.2208 -18.2206 -18.2200 -18.2199 -18.2175 -18.2174 -18.2168 -18.2167
   -16.0582 -16.0579 -16.0574 -16.0572 -16.0486 -16.0484 -16.0480 -16.0478
   -14.3370 -14.3364 -14.3358 -14.3351 -14.3267 -14.3261 -14.3253 -14.3246
   -14.2866 -14.2865 -14.2843 -14.2842 -14.2835 -14.2834 -14.2812 -14.2812
   -14.2804 -14.2803 -14.2800 -14.2800 -14.2799 -14.2798 -14.2796 -14.2795
   -14.2787 -14.2785 -14.2783 -14.2783 -14.2781 -14.2780 -14.2779 -14.2777
   -14.2435 -14.2435 -14.2433 -14.2432 -14.2431 -14.2431 -14.2429 -14.2428
   -10.0719 -10.0495 -10.0353 -10.0221 -10.0078  -9.9956  -9.9848  -9.9789
    -9.7712  -9.7679  -9.7627  -9.7554  -9.7080  -9.6946  -9.6918  -9.6699
    -9.2331  -9.1841  -9.1684  -9.1343  -9.0964  -9.0877  -9.0766  -9.0746
    -8.8955  -8.8908  -8.8810  -8.8703  -8.8683  -8.8648  -8.8298  -8.8275
    -8.0831  -8.0779  -8.0760  -8.0674  -8.0574  -8.0564  -8.0521  -8.0494
    -7.4687  -7.4671  -7.4633  -7.4628  -7.4627  -7.4612  -7.4606  -7.4604
    -5.7626  -5.7588  -5.7582  -5.7508  -5.7132  -5.6747  -5.6735  -5.6725
    -5.6706  -5.5506  -5.4967  -5.3373  -5.2753  -5.1171  -5.0601  -4.9035
    -4.1659  -4.1583  -4.1555  -4.1474  -4.1404  -4.1361  -4.1333  -4.1290
    -3.5830  -3.5792  -3.5730  -3.5716  -3.5696  -3.5688  -3.5676  -3.5648
    -1.1223  -1.1077  -1.0593  -1.0533  -0.5254  -0.5038  -0.4742  -0.4617
    -0.4576  -0.4294  -0.4142  -0.4142  -0.4013  -0.3991  -0.3291  -0.3130
    -0.2984  -0.2753  -0.0686  -0.0514  -0.0285   0.0170   0.0542   0.0711
     0.1037   0.1641   0.1938   0.2062   0.2235   0.2402   0.3398   0.3459
     0.3756   0.3886   0.4426   0.5113   0.6498   0.6671   0.7748   0.7933
     0.7953   0.8478   0.8636   0.8725   0.8867   0.9325   0.9637   0.9876
     1.1477   1.1648   1.1904   1.2011   1.2158   1.2266   1.2275   1.2368
     1.2759   1.2876   1.2933   1.2954   1.3194   1.3347   1.3474   1.3531
     1.3566   1.3823   1.3837   1.3862   1.4171   1.4567   1.4786   1.4980
     1.6634   1.6863   1.7057   1.7097   1.7193   1.7392   1.8140   1.8166

          k =-0.3750 0.3850-0.3789 (315900 PWs)   bands (ev):

   -18.2207 -18.2207 -18.2200 -18.2199 -18.2175 -18.2175 -18.2168 -18.2167
   -16.0581 -16.0580 -16.0574 -16.0572 -16.0486 -16.0485 -16.0479 -16.0478
   -14.3340 -14.3334 -14.3327 -14.3321 -14.3297 -14.3291 -14.3284 -14.3277
   -14.2866 -14.2865 -14.2843 -14.2842 -14.2835 -14.2834 -14.2812 -14.2812
   -14.2803 -14.2802 -14.2801 -14.2799 -14.2799 -14.2798 -14.2797 -14.2796
   -14.2786 -14.2785 -14.2783 -14.2782 -14.2781 -14.2780 -14.2779 -14.2778
   -14.2435 -14.2435 -14.2433 -14.2432 -14.2431 -14.2431 -14.2429 -14.2428
   -10.0608 -10.0456 -10.0412 -10.0299 -10.0005  -9.9910  -9.9904  -9.9835
    -9.7525  -9.7523  -9.7458  -9.7361  -9.7279  -9.7200  -9.7180  -9.7018
    -9.1861  -9.1474  -9.1408  -9.1305  -9.1150  -9.1078  -9.1026  -9.0913
    -8.8943  -8.8923  -8.8767  -8.8700  -8.8697  -8.8689  -8.8293  -8.8283
    -8.0812  -8.0782  -8.0749  -8.0706  -8.0554  -8.0549  -8.0535  -8.0518
    -7.4683  -7.4676  -7.4631  -7.4629  -7.4622  -7.4613  -7.4610  -7.4607
    -5.7628  -5.7606  -5.7585  -5.7542  -5.6745  -5.6735  -5.6733  -5.6718
    -5.5967  -5.4378  -5.4180  -5.3824  -5.2604  -5.2260  -5.2039  -5.0486
    -4.1629  -4.1586  -4.1551  -4.1506  -4.1392  -4.1374  -4.1320  -4.1302
    -3.5773  -3.5755  -3.5717  -3.5709  -3.5709  -3.5700  -3.5698  -3.5696
    -0.7829  -0.7452  -0.6967  -0.6744  -0.5125  -0.4981  -0.4786  -0.4668
    -0.4646  -0.4425  -0.4265  -0.4141  -0.4012  -0.3930  -0.3676  -0.2999
    -0.2511  -0.2121  -0.2023  -0.1756  -0.0209  -0.0152   0.0078   0.0433
     0.0476   0.0920   0.0978   0.1002   0.1424   0.1819   0.2001   0.2003
     0.4009   0.4140   0.5081   0.5405   0.5567   0.5602   0.6083   0.6621
     0.6931   0.7030   0.7753   0.7907   0.7962   0.8173   0.8217   0.8283
     1.2019   1.2155   1.2162   1.2168   1.2355   1.2516   1.2574   1.2601
     1.2718   1.3087   1.3205   1.3222   1.3255   1.3362   1.3431   1.3617
     1.3644   1.3684   1.3755   1.3781   1.3854   1.3958   1.4458   1.4469
     1.6705   1.6797   1.7115   1.7143   1.7145   1.7264   1.8155   1.8166

     highest occupied level (ev):     2.1146

!    total energy              =  -16707.37452477 Ry
     Harris-Foulkes estimate   =  -16707.37452482 Ry
     estimated scf accuracy    <       0.00000006 Ry

     total all-electron energy =   -678114.434209 Ry

     The total energy is the sum of the following terms:

     one-electron contribution =    -982.75690423 Ry
     hartree contribution      =     688.22930350 Ry
     xc contribution           =    -795.76337021 Ry
     ewald contribution        =   -1198.46476185 Ry
     DFT-D3 Dispersion         =      -0.63496796 Ry
     one-center paw contrib.   =  -14417.98382402 Ry

     convergence has been achieved in  11 iterations

     Forces acting on atoms (cartesian axes, Ry/au):

     atom    1 type  1   force =     0.00002205   -0.00022768    0.00000000
     atom    2 type  1   force =     0.00002229   -0.00020895    0.00000000
     atom    3 type  1   force =     0.00001539   -0.00025238    0.00000000
     atom    4 type  1   force =     0.00001739   -0.00024880    0.00000000
     atom    5 type  1   force =     0.00001882   -0.00026748    0.00000000
     atom    6 type  1   force =     0.00001743   -0.00023970    0.00000000
     atom    7 type  1   force =     0.00001612   -0.00020961    0.00000000
     atom    8 type  1   force =     0.00001680   -0.00021461    0.00000000
     atom    9 type  2   force =     0.00000328   -0.00010135    0.00000000
     atom   10 type  2   force =     0.00001011   -0.00010260    0.00000000
     atom   11 type  2   force =     0.00001004   -0.00010163    0.00000000
     atom   12 type  2   force =    -0.00000310   -0.00010215    0.00000000
     atom   13 type  2   force =    -0.00001889   -0.00010100    0.00000000
     atom   14 type  2   force =    -0.00002141   -0.00010171    0.00000000
     atom   15 type  2   force =    -0.00002079   -0.00010221    0.00000000
     atom   16 type  2   force =    -0.00000815   -0.00010205    0.00000000
     atom   17 type  2   force =     0.00000010   -0.00022161    0.00000000
     atom   18 type  2   force =     0.00000010   -0.00021021    0.00000000
     atom   19 type  2   force =    -0.00000697   -0.00020554    0.00000000
     atom   20 type  2   force =    -0.00000775   -0.00021695    0.00000000
     atom   21 type  2   force =     0.00000163   -0.00020911    0.00000000
     atom   22 type  2   force =     0.00000158   -0.00022793    0.00000000
     atom   23 type  2   force =    -0.00000658   -0.00021508    0.00000000
     atom   24 type  2   force =    -0.00000539   -0.00020027    0.00000000
     atom   25 type  2   force =     0.00000341   -0.00022560   -0.00000386
     atom   26 type  2   force =     0.00000341   -0.00022560    0.00000386
     atom   27 type  2   force =     0.00000014   -0.00022168    0.00000447
     atom   28 type  2   force =     0.00000014   -0.00022168   -0.00000447
     atom   29 type  2   force =     0.00000664   -0.00022016    0.00000572
     atom   30 type  2   force =     0.00000664   -0.00022016   -0.00000572
     atom   31 type  2   force =     0.00000122   -0.00023013   -0.00000878
     atom   32 type  2   force =     0.00000122   -0.00023013    0.00000878
     atom   33 type  3   force =     0.00096129    0.00059639   -0.00000019
     atom   34 type  3   force =     0.00096129    0.00059639    0.00000019
     atom   35 type  3   force =    -0.00053348    0.00018399    0.00000025
     atom   36 type  3   force =    -0.00053348    0.00018399   -0.00000025
     atom   37 type  3   force =     0.00115531    0.00045171   -0.00000015
     atom   38 type  3   force =     0.00115531    0.00045171    0.00000015
     atom   39 type  3   force =     0.00042572   -0.00013028   -0.00000012
     atom   40 type  3   force =     0.00042572   -0.00013028    0.00000012
     atom   41 type  4   force =    -0.00084999   -0.00044144   -0.00000064
     atom   42 type  4   force =    -0.00084999   -0.00044144    0.00000064
     atom   43 type  4   force =     0.00014419    0.00034199    0.00000048
     atom   44 type  4   force =     0.00014419    0.00034199   -0.00000048
     atom   45 type  4   force =    -0.00099953   -0.00034885    0.00000030
     atom   46 type  4   force =    -0.00099953   -0.00034885   -0.00000030
     atom   47 type  4   force =    -0.00038940    0.00043058   -0.00000089
     atom   48 type  4   force =    -0.00038940    0.00043058    0.00000089
     atom   49 type  4   force =    -0.00036144   -0.00001408    0.00000012
     atom   50 type  4   force =    -0.00036144   -0.00001408   -0.00000012
     atom   51 type  4   force =     0.00048439   -0.00004509   -0.00000056
     atom   52 type  4   force =     0.00048439   -0.00004509    0.00000056
     atom   53 type  4   force =    -0.00050009    0.00019855   -0.00000012
     atom   54 type  4   force =    -0.00050009    0.00019855    0.00000012
     atom   55 type  4   force =    -0.00022270    0.00042567    0.00000052
     atom   56 type  4   force =    -0.00022270    0.00042567   -0.00000052
     atom   57 type  5   force =    -0.00003060    0.00004821   -0.00000001
     atom   58 type  5   force =    -0.00003060    0.00004821    0.00000001
     atom   59 type  5   force =     0.00000741    0.00017722    0.00000031
     atom   60 type  5   force =     0.00000741    0.00017722   -0.00000031
     atom   61 type  5   force =    -0.00003633    0.00009682   -0.00000024
     atom   62 type  5   force =    -0.00003633    0.00009682    0.00000024
     atom   63 type  5   force =    -0.00001947    0.00025949    0.00000009
     atom   64 type  5   force =    -0.00001947    0.00025949   -0.00000009
     atom   65 type  5   force =     0.00002795    0.00022579    0.00000039
     atom   66 type  5   force =     0.00002795    0.00022579   -0.00000039
     atom   67 type  5   force =    -0.00003193   -0.00010378   -0.00000024
     atom   68 type  5   force =    -0.00003193   -0.00010378    0.00000024
     atom   69 type  5   force =     0.00003793    0.00019317   -0.00000033
     atom   70 type  5   force =     0.00003793    0.00019317    0.00000033
     atom   71 type  5   force =    -0.00000936   -0.00015668    0.00000019
     atom   72 type  5   force =    -0.00000936   -0.00015668   -0.00000019
     atom   73 type  5   force =     0.00021274    0.00007756    0.00000065
     atom   74 type  5   force =     0.00021274    0.00007756   -0.00000065
     atom   75 type  5   force =     0.00012963    0.00009470   -0.00000059
     atom   76 type  5   force =     0.00012963    0.00009470    0.00000059
     atom   77 type  5   force =     0.00028069    0.00002378    0.00000020
     atom   78 type  5   force =     0.00028069    0.00002378   -0.00000020
     atom   79 type  5   force =     0.00027821   -0.00002908   -0.00000021
     atom   80 type  5   force =     0.00027821   -0.00002908    0.00000021
     atom   81 type  5   force =     0.00004353    0.00007718   -0.00000005
     atom   82 type  5   force =     0.00004353    0.00007718    0.00000005
     atom   83 type  5   force =    -0.00000459    0.00006523    0.00000040
     atom   84 type  5   force =    -0.00000459    0.00006523   -0.00000040
     atom   85 type  5   force =     0.00005167   -0.00003858    0.00000022
     atom   86 type  5   force =     0.00005167   -0.00003858   -0.00000022
     atom   87 type  5   force =     0.00003511   -0.00011598   -0.00000027
     atom   88 type  5   force =     0.00003511   -0.00011598    0.00000027
     atom   89 type  5   force =    -0.00001569    0.00020166    0.00000022
     atom   90 type  5   force =    -0.00001569    0.00020166   -0.00000022
     atom   91 type  5   force =    -0.00019925    0.00005799   -0.00000019
     atom   92 type  5   force =    -0.00019925    0.00005799    0.00000019
     atom   93 type  5   force =    -0.00001577    0.00019692    0.00000082
     atom   94 type  5   force =    -0.00001577    0.00019692   -0.00000082
     atom   95 type  5   force =    -0.00010458    0.00009211   -0.00000051
     atom   96 type  5   force =    -0.00010458    0.00009211    0.00000051

     Total force =     0.004008     Total SCF correction =     0.000616
     SCF correction compared to forces is large: reduce conv_thr to get better values


     Computing stress (Cartesian axis) and pressure

          total   stress  (Ry/bohr**3)                   (kbar)     P=   -0.07
  -0.00000004   0.00000033   0.00000000         -0.01      0.05      0.00
   0.00000033  -0.00000025   0.00000000          0.05     -0.04      0.00
   0.00000000   0.00000000  -0.00000115          0.00      0.00     -0.17


     BFGS Geometry Optimization

     number of scf cycles    =   1
     number of bfgs steps    =   0

     enthalpy new            =  -16707.3745247681 Ry

     new trust radius        =       0.0012404769 bohr
     new conv_thr            =       0.0000001000 Ry

     new unit-cell volume =  14230.53709 a.u.^3 (  2108.74801 Ang^3 )
     density =      3.99225 g/cm^3

CELL_PARAMETERS (angstrom)
  12.981620284   0.000000000   0.000000000
   0.000000000  12.643958091   0.000000000
   0.000000000   0.000000000  12.847325733

ATOMIC_POSITIONS (crystal)
Pb       0.000110156  -0.028729425   0.000000000
Pb       0.000111750  -0.028732930   0.500000000
Pb       0.000094164   0.471273563   0.000000000
Pb       0.000100248   0.471279960   0.500000000
Pb       0.500110203  -0.028719981   0.000000000
Pb       0.500111144  -0.028719111   0.500000000
Pb       0.500092812   0.471270799   0.000000000
Pb       0.500095995   0.471272072   0.500000000
I        0.249978212  -0.023029274   0.000000000
I        0.249978518  -0.023030564   0.500000000
I        0.249982030   0.476969483   0.000000000
I        0.249981781   0.476969842   0.500000000
I        0.749976831  -0.023030592   0.000000000
I        0.749975936  -0.023029022   0.500000000
I        0.749977696   0.476968599   0.000000000
I        0.749978106   0.476966862   0.500000000
I       -0.000034110   0.220375044   0.000000000
I       -0.000033768   0.220371864   0.500000000
I       -0.000032668   0.720372576   0.000000000
I       -0.000034480   0.720373988   0.500000000
I        0.499965345   0.220375483   0.000000000
I        0.499965140   0.220375534   0.500000000
I        0.499966685   0.720375623   0.000000000
I        0.499966023   0.720373964   0.500000000
I       -0.000018532  -0.040461913   0.250000838
I       -0.000018532  -0.040461913   0.749999162
I       -0.000015105   0.459539949   0.249999896
I       -0.000015105   0.459539949   0.750000104
I        0.499980083  -0.040455492   0.249999206
I        0.499980083  -0.040455492   0.750000794
I        0.499981611   0.459542929   0.250000741
I        0.499981611   0.459542929   0.749999259
C        0.250021628   0.259690764   0.249999777
C        0.250021628   0.259690764   0.750000223
C        0.249980732   0.759680495   0.250000454
C        0.249980732   0.759680495   0.749999546
C        0.750027269   0.259686904   0.249999847
C        0.750027269   0.259686904   0.750000153
C        0.750008085   0.759672034   0.249999946
C        0.750008085   0.759672034   0.750000054
N        0.160089263   0.212231886   0.249999613
N        0.160089263   0.212231886   0.750000387
N        0.160114308   0.712254363   0.250000695
N        0.160114308   0.712254363   0.749999305
N        0.660081952   0.212239303   0.249999533
N        0.660081952   0.212239303   0.750000467
N        0.660099704   0.712259304   0.249999596
N        0.660099704   0.712259304   0.750000404
N        0.339873708   0.212250376   0.249999821
N        0.339873708   0.212250376   0.750000179
N        0.339894896   0.712249483   0.250000360
N        0.339894896   0.712249483   0.749999640
N        0.839866482   0.212251186   0.249999929
N        0.839866482   0.212251186   0.750000071
N        0.839875461   0.712257726   0.250000195
N        0.839875461   0.712257726   0.749999805
H        0.249992826   0.346018275   0.249999872
H        0.249992826   0.346018275   0.750000128
H        0.249994035   0.846022052   0.250000320
H        0.249994035   0.846022052   0.749999680
H        0.749997320   0.346019236   0.250000070
H        0.749997320   0.346019236   0.749999930
H        0.749997850   0.846024467   0.250000093
H        0.749997850   0.846024467   0.749999907
H        0.150606053   0.132106290   0.249999211
H        0.150606053   0.132106290   0.750000789
H        0.150600462   0.632099456   0.250000492
H        0.150600462   0.632099456   0.749999508
H        0.650598090   0.132111913   0.249999952
H        0.650598090   0.132111913   0.750000048
H        0.650599953   0.632101571   0.249999099
H        0.650599953   0.632101571   0.750000901
H        0.095754443   0.258347333   0.249998917
H        0.095754443   0.258347333   0.750001083
H        0.095751327   0.758350603   0.250000883
H        0.095751327   0.758350603   0.749999117
H        0.595755866   0.258354512   0.249999677
H        0.595755866   0.258354512   0.750000323
H        0.595756013   0.758352560   0.249999230
H        0.595756013   0.758352560   0.750000770
H        0.349395743   0.132109208   0.249999826
H        0.349395743   0.132109208   0.750000174
H        0.349392989   0.632109551   0.250000082
H        0.349392989   0.632109551   0.749999918
H        0.849389469   0.132100674   0.249999986
H        0.849389469   0.132100674   0.750000014
H        0.849391003   0.632099170   0.250000164
H        0.849391003   0.632099170   0.749999836
H        0.404241723   0.258363208   0.250000231
H        0.404241723   0.258363208   0.749999769
H        0.404236718   0.758358318   0.250000190
H        0.404236718   0.758358318   0.749999810
H        0.904242473   0.258353265   0.249999738
H        0.904242473   0.258353265   0.750000262
H        0.904240225   0.758352854   0.250000660
H        0.904240225   0.758352854   0.749999340



     Writing output data file FAPbI_vcrelax6.save/
     NEW-OLD atomic charge density approx. for the potential
     extrapolated charge  431.98438, renormalised to  432.00000

     total cpu time spent up to now is    36787.4 secs

     Self-consistent Calculation

     iteration #  1     ecut=   120.00 Ry     beta= 0.70
     Davidson diagonalization with overlap
     ethr =  1.00E-06,  avg # of iterations =  2.0

     Threshold (ethr) on eigenvalues was too large:
     Diagonalizing with lowered threshold

     Davidson diagonalization with overlap
     ethr =  1.31E-09,  avg # of iterations =  5.0

     total cpu time spent up to now is    41874.3 secs

     total energy              =  -16707.37451688 Ry
     Harris-Foulkes estimate   =  -16707.40114047 Ry
     estimated scf accuracy    <       0.00001020 Ry

     iteration #  2     ecut=   120.00 Ry     beta= 0.70
     Davidson diagonalization with overlap
     ethr =  2.36E-09,  avg # of iterations =  4.1

     total cpu time spent up to now is    44312.9 secs

     total energy              =  -16707.37451874 Ry
     Harris-Foulkes estimate   =  -16707.37452454 Ry
     estimated scf accuracy    <       0.00001171 Ry

     iteration #  3     ecut=   120.00 Ry     beta= 0.70
     Davidson diagonalization with overlap
     ethr =  2.36E-09,  avg # of iterations =  4.0

     total cpu time spent up to now is    46317.9 secs

     total energy              =  -16707.37452109 Ry
     Harris-Foulkes estimate   =  -16707.37452161 Ry
     estimated scf accuracy    <       0.00000095 Ry

     iteration #  4     ecut=   120.00 Ry     beta= 0.70
     Davidson diagonalization with overlap
     ethr =  2.20E-10,  avg # of iterations =  4.0

     total cpu time spent up to now is    48600.8 secs

     total energy              =  -16707.37452134 Ry
     Harris-Foulkes estimate   =  -16707.37452143 Ry
     estimated scf accuracy    <       0.00000017 Ry

     iteration #  5     ecut=   120.00 Ry     beta= 0.70
     Davidson diagonalization with overlap
     ethr =  4.04E-11,  avg # of iterations =  4.0

     total cpu time spent up to now is    50648.3 secs

     End of self-consistent calculation

          k = 0.1250 0.1283 0.1263 (315917 PWs)   bands (ev):

   -18.2220 -18.2219 -18.2208 -18.2206 -18.2142 -18.2141 -18.2130 -18.2129
   -16.0649 -16.0645 -16.0632 -16.0629 -16.0416 -16.0415 -16.0406 -16.0405
   -14.3380 -14.3369 -14.3352 -14.3337 -14.3278 -14.3267 -14.3246 -14.3231
   -14.2901 -14.2899 -14.2845 -14.2842 -14.2824 -14.2824 -14.2802 -14.2800
   -14.2798 -14.2797 -14.2797 -14.2795 -14.2794 -14.2791 -14.2786 -14.2782
   -14.2782 -14.2781 -14.2778 -14.2777 -14.2777 -14.2773 -14.2772 -14.2771
   -14.2434 -14.2434 -14.2429 -14.2429 -14.2429 -14.2429 -14.2425 -14.2424
   -10.1281 -10.0779 -10.0601 -10.0354  -9.9491  -9.9473  -9.9441  -9.9410
    -9.8070  -9.7766  -9.7682  -9.7439  -9.7291  -9.7114  -9.7083  -9.6389
    -9.3001  -9.1590  -9.1111  -9.1030  -9.0800  -9.0775  -9.0734  -9.0402
    -8.9537  -8.9131  -8.9127  -8.9078  -8.9049  -8.8905  -8.7744  -8.7738
    -8.1077  -8.1007  -8.0821  -8.0687  -8.0420  -8.0341  -8.0322  -8.0318
    -7.4779  -7.4765  -7.4626  -7.4623  -7.4601  -7.4581  -7.4579  -7.4555
    -5.9690  -5.8313  -5.8280  -5.8086  -5.8006  -5.6174  -5.6170  -5.6111
    -5.6106  -5.5573  -5.5133  -5.4250  -5.1226  -5.0412  -4.9826  -4.5976
    -4.1910  -4.1769  -4.1722  -4.1560  -4.1276  -4.1276  -4.1124  -4.1119
    -3.5928  -3.5821  -3.5782  -3.5691  -3.5644  -3.5637  -3.5587  -3.5585
    -1.1839  -1.1224  -1.0398  -0.9739  -0.9127  -0.8434  -0.7768  -0.7442
    -0.7054  -0.6958  -0.6135  -0.5531  -0.4898  -0.4005  -0.3874  -0.3764
    -0.3700  -0.3665  -0.3562  -0.2464  -0.0419   0.0303   0.1379   0.1639
     0.1939   0.1962   0.2996   0.3112   0.3300   0.3600   0.4191   0.5054
     0.6250   0.6464   0.6661   0.6788   0.6897   0.6927   0.7008   0.7343
     0.7683   0.8216   1.0020   1.0315   1.0826   1.0889   1.1050   1.1130
     1.1352   1.1399   1.1571   1.1942   1.1981   1.2298   1.2396   1.2859
     1.3089   1.3549   1.3707   1.3881   1.3901   1.4131   1.4360   1.4386
     1.4459   1.4616   1.5102   1.5355   1.5584   1.5597   1.5728   1.6015
     1.6257   1.6606   1.7797   1.8236   1.9225   1.9414   1.9762   2.1150

          k = 0.1250 0.1283 0.3789 (315918 PWs)   bands (ev):

   -18.2220 -18.2219 -18.2207 -18.2207 -18.2141 -18.2141 -18.2130 -18.2129
   -16.0647 -16.0646 -16.0631 -16.0630 -16.0415 -16.0415 -16.0405 -16.0405
   -14.3350 -14.3339 -14.3321 -14.3308 -14.3306 -14.3297 -14.3277 -14.3262
   -14.2900 -14.2900 -14.2844 -14.2843 -14.2824 -14.2824 -14.2801 -14.2799
   -14.2799 -14.2798 -14.2796 -14.2795 -14.2794 -14.2793 -14.2785 -14.2783
   -14.2780 -14.2780 -14.2779 -14.2778 -14.2776 -14.2774 -14.2772 -14.2771
   -14.2434 -14.2434 -14.2429 -14.2429 -14.2429 -14.2429 -14.2424 -14.2424
   -10.1133 -10.0924 -10.0528 -10.0426  -9.9476  -9.9455  -9.9450  -9.9425
    -9.7826  -9.7596  -9.7572  -9.7423  -9.7410  -9.7328  -9.7226  -9.6818
    -9.2323  -9.1567  -9.1191  -9.0922  -9.0803  -9.0791  -9.0780  -9.0705
    -8.9348  -8.9129  -8.9128  -8.9085  -8.9070  -8.9058  -8.7743  -8.7741
    -8.1058  -8.1029  -8.0783  -8.0728  -8.0397  -8.0364  -8.0321  -8.0319
    -7.4776  -7.4770  -7.4625  -7.4623  -7.4588  -7.4581  -7.4580  -7.4569
    -5.8620  -5.8323  -5.8305  -5.8086  -5.7922  -5.6550  -5.6173  -5.6172
    -5.6110  -5.6108  -5.4449  -5.3093  -5.2667  -5.1285  -4.9301  -4.7492
    -4.1871  -4.1813  -4.1675  -4.1608  -4.1276  -4.1276  -4.1123  -4.1121
    -3.5822  -3.5768  -3.5726  -3.5697  -3.5680  -3.5673  -3.5655  -3.5642
    -0.9021  -0.8841  -0.8291  -0.7680  -0.7548  -0.7317  -0.7128  -0.6695
    -0.6316  -0.6002  -0.5622  -0.5138  -0.5131  -0.4726  -0.4567  -0.3999
    -0.3852  -0.3309  -0.3100  -0.2456  -0.0296   0.0069   0.0621   0.0816
     0.0854   0.1507   0.1521   0.1652   0.2085   0.2232   0.2666   0.2739
     0.4237   0.4658   0.5378   0.5410   0.5843   0.6172   0.6575   0.7168
[...]
    -9.2642  -9.1924  -9.1423  -9.1114  -9.1099  -9.0978  -9.0705  -9.0550
    -8.9122  -8.9101  -8.9097  -8.9068  -8.8744  -8.8496  -8.8103  -8.8036
    -8.0974  -8.0885  -8.0870  -8.0753  -8.0393  -8.0353  -8.0334  -8.0325
    -7.4767  -7.4740  -7.4695  -7.4655  -7.4645  -7.4642  -7.4627  -7.4624
    -5.8368  -5.8261  -5.8217  -5.8105  -5.8077  -5.6184  -5.6179  -5.6158
    -5.6153  -5.6044  -5.4326  -5.3776  -5.2211  -5.1604  -4.9974  -4.7833
    -4.1722  -4.1617  -4.1528  -4.1456  -4.1413  -4.1410  -4.1281  -4.1235
    -3.5912  -3.5867  -3.5771  -3.5733  -3.5642  -3.5638  -3.5618  -3.5617
    -1.1430  -1.1077  -1.0736  -1.0604  -0.7142  -0.6638  -0.6561  -0.5823
    -0.4965  -0.4855  -0.4566  -0.4082  -0.4042  -0.3948  -0.3646  -0.3598
    -0.3353  -0.3115  -0.2639  -0.2484  -0.0256   0.0208   0.0230   0.0863
     0.1690   0.1710   0.1801   0.2342   0.3012   0.3149   0.3311   0.4223
     0.4389   0.4782   0.6391   0.6804   0.7423   0.7558   0.7667   0.7783
     0.7861   0.8007   0.8437   0.8577   0.8589   0.9048   0.9234   0.9393
     1.1007   1.1575   1.1772   1.1776   1.1981   1.1994   1.2122   1.3080
     1.3183   1.3188   1.3453   1.3689   1.3721   1.3799   1.4015   1.4155
     1.4493   1.4910   1.5194   1.5384   1.5550   1.5649   1.5728   1.5803
     1.6113   1.6305   1.6339   1.6968   1.7592   1.7976   1.8560   1.8721

          k =-0.1249 0.3850-0.3790 (315876 PWs)   bands (ev):

   -18.2225 -18.2224 -18.2221 -18.2220 -18.2148 -18.2147 -18.2144 -18.2144
   -16.0655 -16.0654 -16.0650 -16.0648 -16.0427 -16.0426 -16.0425 -16.0424
   -14.3401 -14.3390 -14.3389 -14.3376 -14.3357 -14.3347 -14.3345 -14.3332
   -14.2936 -14.2935 -14.2904 -14.2904 -14.2882 -14.2881 -14.2860 -14.2860
   -14.2858 -14.2858 -14.2856 -14.2855 -14.2854 -14.2853 -14.2852 -14.2851
   -14.2841 -14.2840 -14.2839 -14.2838 -14.2837 -14.2836 -14.2835 -14.2834
   -14.2493 -14.2492 -14.2491 -14.2490 -14.2489 -14.2488 -14.2486 -14.2486
   -10.0981 -10.0798 -10.0722 -10.0583  -9.9484  -9.9475  -9.9464  -9.9452
    -9.7832  -9.7728  -9.7559  -9.7496  -9.7491  -9.7395  -9.7258  -9.7036
    -9.2109  -9.1597  -9.1490  -9.1210  -9.1135  -9.0971  -9.0808  -9.0776
    -8.9115  -8.9105  -8.9092  -8.9078  -8.8678  -8.8575  -8.8086  -8.8058
    -8.0950  -8.0913  -8.0837  -8.0789  -8.0376  -8.0352  -8.0345  -8.0334
    -7.4760  -7.4749  -7.4683  -7.4667  -7.4644  -7.4643  -7.4626  -7.4625
    -5.8276  -5.8250  -5.8238  -5.8158  -5.7003  -5.6183  -5.6181  -5.6157
    -5.6155  -5.5209  -5.4862  -5.3209  -5.3050  -5.1427  -5.1102  -4.9313
    -4.1692  -4.1649  -4.1494  -4.1446  -4.1442  -4.1423  -4.1267  -4.1248
    -3.5821  -3.5799  -3.5726  -3.5706  -3.5705  -3.5700  -3.5666  -3.5662
    -0.8156  -0.7282  -0.7215  -0.6885  -0.6724  -0.6703  -0.6220  -0.5945
    -0.5154  -0.4797  -0.4297  -0.4292  -0.4266  -0.3790  -0.3645  -0.3540
    -0.3429  -0.3321  -0.3222  -0.2549  -0.0664  -0.0084   0.0149   0.0167
     0.0428   0.0575   0.1417   0.1445   0.2088   0.2144   0.2630   0.2673
     0.4143   0.4479   0.5294   0.5610   0.5764   0.5781   0.6781   0.6917
     0.6998   0.7027   0.7529   0.7634   0.7944   0.8056   0.9140   0.9168
     1.2011   1.2172   1.2447   1.2756   1.2905   1.3010   1.3037   1.3143
     1.3181   1.3328   1.3529   1.3668   1.3678   1.3683   1.3707   1.4078
     1.4308   1.4389   1.4498   1.4688   1.5336   1.5634   1.5777   1.5806
     1.5954   1.5992   1.6408   1.6705   1.6994   1.7195   1.8444   1.8504

          k =-0.3747 0.1283-0.1263 (315963 PWs)   bands (ev):

   -18.2204 -18.2203 -18.2197 -18.2196 -18.2172 -18.2171 -18.2166 -18.2165
   -16.0593 -16.0590 -16.0582 -16.0579 -16.0496 -16.0495 -16.0489 -16.0488
   -14.3438 -14.3433 -14.3408 -14.3402 -14.3334 -14.3330 -14.3301 -14.3295
   -14.2942 -14.2940 -14.2919 -14.2916 -14.2866 -14.2866 -14.2860 -14.2860
   -14.2858 -14.2858 -14.2856 -14.2855 -14.2853 -14.2853 -14.2845 -14.2845
   -14.2843 -14.2841 -14.2840 -14.2838 -14.2837 -14.2835 -14.2834 -14.2832
   -14.2493 -14.2493 -14.2491 -14.2491 -14.2488 -14.2487 -14.2486 -14.2485
   -10.0879 -10.0445 -10.0307 -10.0182 -10.0105  -9.9899  -9.9870  -9.9745
    -9.7808  -9.7807  -9.7747  -9.7597  -9.7296  -9.7246  -9.6893  -9.6629
    -9.2711  -9.2162  -9.1017  -9.0996  -9.0903  -9.0807  -9.0791  -9.0755
    -8.9438  -8.9267  -8.9067  -8.8975  -8.8579  -8.8557  -8.8060  -8.8053
    -8.0853  -8.0815  -8.0727  -8.0608  -8.0573  -8.0552  -8.0538  -8.0473
    -7.4756  -7.4744  -7.4671  -7.4666  -7.4623  -7.4616  -7.4615  -7.4588
    -5.8620  -5.7677  -5.7649  -5.7537  -5.7467  -5.6945  -5.6773  -5.6760
    -5.6746  -5.6718  -5.4141  -5.3288  -5.2546  -5.1725  -4.8870  -4.7306
    -4.1834  -4.1750  -4.1686  -4.1594  -4.1216  -4.1215  -4.1152  -4.1150
    -3.5859  -3.5769  -3.5757  -3.5739  -3.5699  -3.5676  -3.5672  -3.5633
    -1.1715  -1.1463  -1.0296  -1.0025  -0.9007  -0.8715  -0.7592  -0.7256
    -0.5171  -0.5067  -0.4362  -0.4309  -0.4270  -0.4239  -0.4087  -0.3780
    -0.3393  -0.2809  -0.0695  -0.0517  -0.0222   0.0039   0.0639   0.1223
     0.1492   0.1928   0.2137   0.2243   0.2872   0.3427   0.3583   0.3708
     0.4059   0.5177   0.6242   0.6444   0.7113   0.7409   0.7726   0.7751
     0.7821   0.8164   0.8554   0.8635   0.9045   0.9392   0.9410   1.0065
     1.1138   1.1681   1.1707   1.2002   1.2590   1.2681   1.2781   1.2847
     1.3236   1.3521   1.3586   1.3678   1.3819   1.3914   1.4108   1.4317
     1.4350   1.4492   1.4623   1.4738   1.5324   1.5682   1.5774   1.6183
     1.6200   1.6243   1.6763   1.7286   1.7966   1.8496   1.8688   1.9139

          k =-0.3747 0.1283-0.3790 (315883 PWs)   bands (ev):

   -18.2204 -18.2203 -18.2197 -18.2197 -18.2171 -18.2171 -18.2166 -18.2165
   -16.0592 -16.0590 -16.0581 -16.0580 -16.0496 -16.0495 -16.0489 -16.0488
   -14.3407 -14.3403 -14.3377 -14.3371 -14.3364 -14.3360 -14.3333 -14.3327
   -14.2941 -14.2940 -14.2918 -14.2917 -14.2866 -14.2866 -14.2859 -14.2859
   -14.2858 -14.2857 -14.2856 -14.2855 -14.2854 -14.2854 -14.2845 -14.2845
   -14.2842 -14.2840 -14.2840 -14.2839 -14.2836 -14.2835 -14.2834 -14.2833
   -14.2493 -14.2493 -14.2491 -14.2491 -14.2488 -14.2487 -14.2486 -14.2485
   -10.0748 -10.0568 -10.0247 -10.0163 -10.0091  -9.9973  -9.9832  -9.9781
    -9.7659  -9.7624  -9.7602  -9.7438  -9.7427  -9.7393  -9.7233  -9.7010
    -9.2118  -9.1683  -9.1434  -9.1110  -9.0923  -9.0870  -9.0839  -9.0831
    -8.9297  -8.9205  -8.9123  -8.9105  -8.8573  -8.8564  -8.8058  -8.8055
    -8.0843  -8.0827  -8.0694  -8.0645  -8.0549  -8.0545  -8.0543  -8.0503
    -7.4753  -7.4748  -7.4670  -7.4668  -7.4621  -7.4617  -7.4608  -7.4597
    -5.7684  -5.7680  -5.7667  -5.7510  -5.7273  -5.6773  -5.6767  -5.6755
    -5.6733  -5.5782  -5.5577  -5.3988  -5.2149  -5.0605  -5.0343  -4.8802
    -4.1792  -4.1731  -4.1705  -4.1640  -4.1215  -4.1215  -4.1152  -4.1151
    -3.5787  -3.5747  -3.5731  -3.5719  -3.5718  -3.5696  -3.5695  -3.5692
    -0.8941  -0.8834  -0.8139  -0.7829  -0.7649  -0.7256  -0.6241  -0.6078
    -0.5156  -0.4973  -0.4671  -0.4613  -0.4520  -0.4415  -0.4342  -0.3060
    -0.2450  -0.2198  -0.2095  -0.1652   0.0070   0.0187   0.0225   0.0901
     0.1010   0.1042   0.1111   0.1164   0.1237   0.1773   0.1882   0.1980
     0.4189   0.4440   0.5397   0.5621   0.5656   0.5662   0.6825   0.7106
     0.7305   0.7585   0.7816   0.8190   0.8275   0.8396   0.9389   0.9673
     1.2138   1.2234   1.2316   1.2681   1.2753   1.3061   1.3283   1.3440
     1.3491   1.3505   1.3514   1.3587   1.3613   1.3629   1.3722   1.3975
     1.4335   1.4436   1.4443   1.4497   1.5430   1.5758   1.5787   1.5871
     1.5961   1.6037   1.6794   1.7091   1.7404   1.7719   1.8686   1.8721

          k =-0.3747 0.3850-0.1263 (315870 PWs)   bands (ev):

   -18.2203 -18.2201 -18.2199 -18.2198 -18.2171 -18.2170 -18.2167 -18.2166
   -16.0589 -16.0586 -16.0585 -16.0582 -16.0494 -16.0493 -16.0491 -16.0490
   -14.3428 -14.3423 -14.3416 -14.3410 -14.3324 -14.3319 -14.3310 -14.3304
   -14.2921 -14.2919 -14.2898 -14.2897 -14.2889 -14.2889 -14.2867 -14.2867
   -14.2860 -14.2860 -14.2858 -14.2858 -14.2856 -14.2855 -14.2853 -14.2853
   -14.2842 -14.2840 -14.2840 -14.2838 -14.2837 -14.2835 -14.2835 -14.2833
   -14.2492 -14.2492 -14.2491 -14.2490 -14.2489 -14.2488 -14.2487 -14.2486
   -10.0728 -10.0493 -10.0356 -10.0217 -10.0092  -9.9963  -9.9859  -9.9795
    -9.7792  -9.7767  -9.7725  -9.7640  -9.7173  -9.7052  -9.7006  -9.6798
    -9.2357  -9.1873  -9.1712  -9.1377  -9.0998  -9.0914  -9.0804  -9.0782
    -8.8962  -8.8913  -8.8822  -8.8711  -8.8694  -8.8657  -8.8315  -8.8288
    -8.0813  -8.0762  -8.0746  -8.0661  -8.0566  -8.0558  -8.0516  -8.0488
    -7.4715  -7.4698  -7.4658  -7.4657  -7.4652  -7.4637  -7.4634  -7.4630
    -5.7641  -5.7606  -5.7601  -5.7527  -5.7184  -5.6769  -5.6763  -5.6750
    -5.6733  -5.5575  -5.5019  -5.3441  -5.2783  -5.1217  -5.0628  -4.9079
    -4.1656  -4.1576  -4.1550  -4.1465  -4.1400  -4.1355  -4.1328  -4.1283
    -3.5833  -3.5795  -3.5733  -3.5719  -3.5700  -3.5692  -3.5680  -3.5652
    -1.1302  -1.1157  -1.0676  -1.0617  -0.5295  -0.5051  -0.4794  -0.4632
    -0.4594  -0.4311  -0.4159  -0.4158  -0.4041  -0.4013  -0.3311  -0.3167
    -0.3015  -0.2794  -0.0689  -0.0514  -0.0341   0.0099   0.0482   0.0656
     0.0984   0.1581   0.1881   0.2011   0.2199   0.2356   0.3362   0.3418
     0.3724   0.3854   0.4404   0.5086   0.6442   0.6617   0.7723   0.7903
     0.7918   0.8453   0.8598   0.8690   0.8834   0.9302   0.9598   0.9850
     1.1439   1.1610   1.1866   1.1984   1.2132   1.2223   1.2247   1.2331
     1.2718   1.2847   1.2902   1.2914   1.3155   1.3324   1.3448   1.3497
     1.3533   1.3783   1.3791   1.3829   1.4130   1.4526   1.4759   1.4936
     1.6607   1.6836   1.7025   1.7070   1.7166   1.7360   1.8107   1.8133

          k =-0.3747 0.3850-0.3790 (315900 PWs)   bands (ev):

   -18.2202 -18.2202 -18.2199 -18.2198 -18.2170 -18.2170 -18.2167 -18.2166
   -16.0588 -16.0587 -16.0584 -16.0583 -16.0494 -16.0493 -16.0491 -16.0490
   -14.3398 -14.3393 -14.3385 -14.3379 -14.3354 -14.3349 -14.3341 -14.3335
   -14.2920 -14.2920 -14.2898 -14.2897 -14.2889 -14.2889 -14.2867 -14.2867
   -14.2859 -14.2859 -14.2858 -14.2857 -14.2856 -14.2855 -14.2854 -14.2854
   -14.2841 -14.2840 -14.2839 -14.2838 -14.2837 -14.2836 -14.2835 -14.2834
   -14.2492 -14.2492 -14.2491 -14.2490 -14.2489 -14.2488 -14.2487 -14.2486
   -10.0615 -10.0461 -10.0410 -10.0295 -10.0018  -9.9921  -9.9911  -9.9841
    -9.7614  -9.7605  -9.7558  -9.7450  -9.7369  -9.7285  -9.7282  -9.7111
    -9.1891  -9.1508  -9.1440  -9.1338  -9.1186  -9.1113  -9.1060  -9.0951
    -8.8949  -8.8929  -8.8778  -8.8710  -8.8706  -8.8699  -8.8308  -8.8297
    -8.0795  -8.0767  -8.0734  -8.0692  -8.0546  -8.0544  -8.0529  -8.0512
    -7.4710  -7.4703  -7.4656  -7.4653  -7.4651  -7.4641  -7.4635  -7.4632
    -5.7645  -5.7624  -5.7603  -5.7560  -5.6768  -5.6760  -5.6759  -5.6746
    -5.6014  -5.4442  -5.4218  -5.3870  -5.2658  -5.2322  -5.2075  -5.0539
    -4.1626  -4.1582  -4.1544  -4.1498  -4.1387  -4.1368  -4.1315  -4.1296
    -3.5776  -3.5759  -3.5720  -3.5712  -3.5712  -3.5704  -3.5703  -3.5701
    -0.7883  -0.7509  -0.7025  -0.6806  -0.5144  -0.5008  -0.4803  -0.4686
    -0.4662  -0.4457  -0.4284  -0.4184  -0.4047  -0.3958  -0.3708  -0.3054
    -0.2532  -0.2135  -0.2039  -0.1791  -0.0253  -0.0195   0.0023   0.0364
     0.0422   0.0856   0.0928   0.0947   0.1374   0.1764   0.1955   0.1959
     0.3961   0.4093   0.5055   0.5352   0.5542   0.5551   0.6040   0.6596
     0.6903   0.6994   0.7721   0.7871   0.7927   0.8150   0.8185   0.8257
     1.1986   1.2122   1.2126   1.2135   1.2322   1.2474   1.2528   1.2562
     1.2669   1.3055   1.3161   1.3192   1.3207   1.3317   1.3376   1.3563
     1.3618   1.3658   1.3728   1.3757   1.3825   1.3922   1.4433   1.4436
     1.6677   1.6769   1.7088   1.7113   1.7115   1.7232   1.8121   1.8133

     highest occupied level (ev):     2.1090

!    total energy              =  -16707.37466451 Ry
     Harris-Foulkes estimate   =  -16707.37466451 Ry
     estimated scf accuracy    <          1.6E-09 Ry

     total all-electron energy =   -678114.434349 Ry

     The total energy is the sum of the following terms:

     one-electron contribution =    -983.52400616 Ry
     hartree contribution      =     688.55975414 Ry
     xc contribution           =    -795.76130998 Ry
     ewald contribution        =   -1198.03122989 Ry
     DFT-D3 Dispersion         =      -0.63459361 Ry
     one-center paw contrib.   =  -14417.98327902 Ry

     convergence has been achieved in  10 iterations

     Forces acting on atoms (cartesian axes, Ry/au):

     atom    1 type  1   force =     0.00005846   -0.00016455    0.00000000
     atom    2 type  1   force =     0.00005997   -0.00011439    0.00000000
     atom    3 type  1   force =     0.00005612   -0.00021032    0.00000000
     atom    4 type  1   force =     0.00005675   -0.00025702    0.00000000
     atom    5 type  1   force =     0.00005768   -0.00024451    0.00000000
     atom    6 type  1   force =     0.00005753   -0.00022940    0.00000000
     atom    7 type  1   force =     0.00005577   -0.00012606    0.00000000
     atom    8 type  1   force =     0.00005709   -0.00013856    0.00000000
     atom    9 type  2   force =    -0.00001465   -0.00015824    0.00000000
     atom   10 type  2   force =     0.00000699   -0.00015978    0.00000000
     atom   11 type  2   force =     0.00001063   -0.00016080    0.00000000
     atom   12 type  2   force =    -0.00001650   -0.00015805    0.00000000
     atom   13 type  2   force =    -0.00001919   -0.00015901    0.00000000
     atom   14 type  2   force =    -0.00004201   -0.00016015    0.00000000
     atom   15 type  2   force =    -0.00004020   -0.00016069    0.00000000
     atom   16 type  2   force =    -0.00001308   -0.00015846    0.00000000
     atom   17 type  2   force =    -0.00001517   -0.00004363    0.00000000
     atom   18 type  2   force =    -0.00001544   -0.00000168    0.00000000
     atom   19 type  2   force =    -0.00001659    0.00001793    0.00000000
     atom   20 type  2   force =    -0.00001684   -0.00002955    0.00000000
     atom   21 type  2   force =    -0.00001644    0.00000273    0.00000000
     atom   22 type  2   force =    -0.00001643   -0.00004276    0.00000000
     atom   23 type  2   force =    -0.00001699   -0.00003324    0.00000000
     atom   24 type  2   force =    -0.00001756    0.00000765    0.00000000
     atom   25 type  2   force =    -0.00001049    0.00033179   -0.00001994
     atom   26 type  2   force =    -0.00001049    0.00033179    0.00001994
     atom   27 type  2   force =    -0.00000593    0.00035245    0.00001522
     atom   28 type  2   force =    -0.00000593    0.00035245   -0.00001522
     atom   29 type  2   force =    -0.00000837    0.00035414    0.00001558
     atom   30 type  2   force =    -0.00000837    0.00035414   -0.00001558
     atom   31 type  2   force =    -0.00000976    0.00033758   -0.00002099
     atom   32 type  2   force =    -0.00000976    0.00033758    0.00002099
     atom   33 type  3   force =     0.00000177   -0.00001257   -0.00000126
     atom   34 type  3   force =     0.00000177   -0.00001257    0.00000126
     atom   35 type  3   force =     0.00016311    0.00015743    0.00000131
     atom   36 type  3   force =     0.00016311    0.00015743   -0.00000131
     atom   37 type  3   force =    -0.00012400    0.00000082   -0.00000130
     atom   38 type  3   force =    -0.00012400    0.00000082    0.00000130
     atom   39 type  3   force =    -0.00018701    0.00020540    0.00000142
     atom   40 type  3   force =    -0.00018701    0.00020540   -0.00000142
     atom   41 type  4   force =     0.00001556   -0.00005866   -0.00000559
     atom   42 type  4   force =     0.00001556   -0.00005866    0.00000559
     atom   43 type  4   force =    -0.00013539   -0.00030922    0.00000443
     atom   44 type  4   force =    -0.00013539   -0.00030922   -0.00000443
     atom   45 type  4   force =     0.00004403   -0.00001126    0.00000094
     atom   46 type  4   force =     0.00004403   -0.00001126   -0.00000094
     atom   47 type  4   force =    -0.00004625   -0.00034514   -0.00000159
     atom   48 type  4   force =    -0.00004625   -0.00034514    0.00000159
     atom   49 type  4   force =     0.00002177    0.00020770    0.00000056
     atom   50 type  4   force =     0.00002177    0.00020770   -0.00000056
     atom   51 type  4   force =     0.00009356    0.00024896   -0.00000127
     atom   52 type  4   force =     0.00009356    0.00024896    0.00000127
     atom   53 type  4   force =     0.00018106    0.00020349   -0.00000489
     atom   54 type  4   force =     0.00018106    0.00020349    0.00000489
     atom   55 type  4   force =     0.00058047    0.00051803    0.00000410
     atom   56 type  4   force =     0.00058047    0.00051803   -0.00000410
     atom   57 type  5   force =    -0.00000254    0.00036057    0.00000118
     atom   58 type  5   force =    -0.00000254    0.00036057   -0.00000118
     atom   59 type  5   force =    -0.00002117    0.00031564   -0.00000049
     atom   60 type  5   force =    -0.00002117    0.00031564    0.00000049
     atom   61 type  5   force =    -0.00000081    0.00036354    0.00000091
     atom   62 type  5   force =    -0.00000081    0.00036354   -0.00000091
     atom   63 type  5   force =     0.00002898    0.00026977   -0.00000038
     atom   64 type  5   force =     0.00002898    0.00026977    0.00000038
     atom   65 type  5   force =     0.00004501   -0.00021681    0.00000310
     atom   66 type  5   force =     0.00004501   -0.00021681   -0.00000310
     atom   67 type  5   force =     0.00007849   -0.00009675   -0.00000247
     atom   68 type  5   force =     0.00007849   -0.00009675    0.00000247
     atom   69 type  5   force =     0.00005982   -0.00025692   -0.00000027
     atom   70 type  5   force =     0.00005982   -0.00025692    0.00000027
     atom   71 type  5   force =     0.00005120   -0.00002505    0.00000059
     atom   72 type  5   force =     0.00005120   -0.00002505   -0.00000059
     atom   73 type  5   force =     0.00024475    0.00010957    0.00000292
     atom   74 type  5   force =     0.00024475    0.00010957   -0.00000292
     atom   75 type  5   force =     0.00023452    0.00015607   -0.00000278
     atom   76 type  5   force =     0.00023452    0.00015607    0.00000278
     atom   77 type  5   force =     0.00026865    0.00012582    0.00000089
     atom   78 type  5   force =     0.00026865    0.00012582   -0.00000089
     atom   79 type  5   force =     0.00023249    0.00013632   -0.00000078
     atom   80 type  5   force =     0.00023249    0.00013632    0.00000078
     atom   81 type  5   force =     0.00001435   -0.00035669    0.00000005
     atom   82 type  5   force =     0.00001435   -0.00035669   -0.00000005
     atom   83 type  5   force =     0.00001376   -0.00042621    0.00000046
     atom   84 type  5   force =     0.00001376   -0.00042621   -0.00000046
     atom   85 type  5   force =    -0.00001090   -0.00039361    0.00000283
     atom   86 type  5   force =    -0.00001090   -0.00039361   -0.00000283
     atom   87 type  5   force =    -0.00001673   -0.00054572   -0.00000230
     atom   88 type  5   force =    -0.00001673   -0.00054572    0.00000230
     atom   89 type  5   force =    -0.00035899   -0.00001529    0.00000089
     atom   90 type  5   force =    -0.00035899   -0.00001529   -0.00000089
     atom   91 type  5   force =    -0.00045046   -0.00003229   -0.00000059
     atom   92 type  5   force =    -0.00045046   -0.00003229    0.00000059
     atom   93 type  5   force =    -0.00043165   -0.00001709    0.00000302
     atom   94 type  5   force =    -0.00043165   -0.00001709   -0.00000302
     atom   95 type  5   force =    -0.00065283   -0.00019455   -0.00000284
     atom   96 type  5   force =    -0.00065283   -0.00019455    0.00000284

     Total force =     0.003019     Total SCF correction =     0.000059


     Computing stress (Cartesian axis) and pressure

