
     Program PWSCF v.6.4 starts on  8Aug2020 at  5:20:31 

     This program is part of the open-source Quantum ESPRESSO suite
     for quantum simulation of materials; please cite
         "P. Giannozzi et al., J. Phys.:Condens. Matter 21 395502 (2009);
         "P. Giannozzi et al., J. Phys.:Condens. Matter 29 465901 (2017);
          URL http://www.quantum-espresso.org", 
     in publications or presentations arising from this work. More details at
     http://www.quantum-espresso.org/quote

     Parallel version (MPI), running on    32 processors

     MPI processes distributed on     1 nodes
     R & G space division:  proc/nbgrp/npool/nimage =      32
     Waiting for input...
     Reading input from standard input

     Current dimensions of program PWSCF are:
     Max number of different atomic species (ntypx) = 10
     Max number of k-points (npk) =  40000
     Max angular momentum in pseudopotentials (lmaxx) =  3
               file Pb.pbe-dn-kjpaw_psl.1.0.0.UPF: wavefunction(s)  6S 6P 5D renormalized
               file I.pbe-n-kjpaw_psl.1.0.0.UPF: wavefunction(s)  5S renormalized
               file C.pbe-n-kjpaw_psl.1.0.0.UPF: wavefunction(s)  2S 2P renormalized
               file N.pbe-n-kjpaw_psl.1.0.0.UPF: wavefunction(s)  2S renormalized
               file H.pbe-kjpaw_psl.1.0.0.UPF: wavefunction(s)  1S renormalized

     --------------------------------------------
     Parameters for DFT-D3 Dispersion Correction:
     --------------------------------------------
       Reference C6 values for interpolation: 

         atom   Coordination number   C6
         H          0.912             6.05
         H          0.000            15.18
         C          0.000            98.23
         C          0.987            86.49
         C          1.998            58.72
         C          2.999            51.56
         C          3.984            36.41
         N          0.000            50.54
         N          0.994            44.25
         N          2.014            39.35
         N          2.990            31.16
         I          0.000           703.93
         I          0.997           717.00
         Pb         0.000          1477.63
         Pb         0.938          1266.00
         Pb         1.936          1088.91
         Pb         2.908          1048.37
         Pb         3.910           910.57

       Values used:

         atom   Coordination number  R0_AB[au]  C6      C8
         Pb         4.784            4.041    910.57 144158.46
         Pb         4.843            4.041    910.57 144158.33
         Pb         4.710            4.041    910.57 144158.73
         Pb         4.820            4.041    910.57 144158.37
         Pb         4.692            4.041    910.58 144158.83
         Pb         4.768            4.041    910.57 144158.50
         Pb         4.852            4.041    910.57 144158.31
         Pb         4.733            4.041    910.57 144158.63
         I          1.941            3.532    717.00  65855.99
         I          1.972            3.532    717.00  65856.00
         I          1.832            3.532    717.00  65855.98
         I          1.943            3.532    717.00  65855.99
         I          1.869            3.532    717.00  65855.98
         I          1.910            3.532    717.00  65855.99
         I          1.994            3.532    717.00  65856.00
         I          1.948            3.532    717.00  65855.99
         I          1.883            3.532    717.00  65855.99
         I          1.921            3.532    717.00  65855.99
         I          1.946            3.532    717.00  65855.99
         I          1.977            3.532    717.00  65856.00
         I          1.914            3.532    717.00  65855.99
         I          1.966            3.532    717.00  65856.00
         I          1.940            3.532    717.00  65855.99
         I          1.924            3.532    717.00  65855.99
         I          1.896            3.532    717.00  65855.99
         I          1.961            3.532    717.00  65856.00
         I          1.932            3.532    717.00  65855.99
         I          1.959            3.532    717.00  65856.00
         I          1.864            3.532    717.00  65855.98
         I          1.880            3.532    717.00  65855.99
         I          1.995            3.532    717.00  65856.00
         I          1.931            3.532    717.00  65855.99
         C          3.067            2.750     51.06   1476.81
         C          3.071            2.750     51.04   1476.22
         C          3.069            2.750     51.05   1476.48
         C          3.073            2.750     51.03   1476.01
         C          3.079            2.750     51.00   1475.04
         C          3.070            2.750     51.05   1476.40
         C          3.069            2.750     51.05   1476.54
         C          3.068            2.750     51.06   1476.70
         N          3.104            2.478     31.23    689.02
         N          3.099            2.478     31.24    689.07
         N          3.114            2.478     31.23    688.90
         N          3.102            2.478     31.23    689.04
         N          3.100            2.478     31.23    689.07
         N          3.100            2.478     31.23    689.06
         N          3.106            2.478     31.23    688.99
         N          3.106            2.478     31.23    688.99
         N          3.099            2.478     31.24    689.08
         N          3.105            2.478     31.23    689.00
         N          3.102            2.478     31.23    689.04
         N          3.106            2.478     31.23    688.99
         N          3.103            2.478     31.23    689.03
         N          3.100            2.478     31.23    689.06
         N          3.101            2.478     31.23    689.05
         N          3.108            2.478     31.23    688.97
         H          1.016            2.062      6.17     74.55
         H          1.019            2.062      6.17     74.53
         H          1.018            2.062      6.17     74.53
         H          1.017            2.062      6.17     74.54
         H          1.024            2.062      6.16     74.47
         H          1.022            2.062      6.16     74.50
         H          1.017            2.062      6.17     74.54
         H          1.015            2.062      6.17     74.56
         H          1.027            2.062      6.16     74.45
         H          1.052            2.062      6.14     74.23
         H          1.058            2.062      6.14     74.19
         H          1.053            2.062      6.14     74.23
         H          1.055            2.062      6.14     74.22
         H          1.050            2.062      6.14     74.25
         H          1.034            2.062      6.15     74.38
         H          1.046            2.062      6.15     74.28
         H          1.075            2.062      6.13     74.07
         H          1.044            2.062      6.15     74.30
         H          1.042            2.062      6.15     74.31
         H          1.052            2.062      6.14     74.24
         H          1.030            2.062      6.16     74.42
         H          1.033            2.062      6.15     74.39
         H          1.061            2.062      6.14     74.17
         H          1.061            2.062      6.14     74.17
         H          1.043            2.062      6.15     74.31
         H          1.025            2.062      6.16     74.47
         H          1.026            2.062      6.16     74.45
         H          1.028            2.062      6.16     74.43
         H          1.057            2.062      6.14     74.20
         H          1.052            2.062      6.14     74.24
         H          1.053            2.062      6.14     74.23
         H          1.025            2.062      6.16     74.46
         H          1.038            2.062      6.15     74.35
         H          1.072            2.062      6.13     74.09
         H          1.040            2.062      6.15     74.33
         H          1.072            2.062      6.13     74.09
         H          1.044            2.062      6.15     74.30
         H          1.044            2.062      6.15     74.30
         H          1.045            2.062      6.15     74.29
         H          1.087            2.062      6.12     74.00

         Molecular C6 ( Ry / a.u.^6 ) =   1270621.31


     Subspace diagonalization in iterative solution of the eigenvalue problem:
     a serial algorithm will be used


     Parallelization info
     --------------------
     sticks:   dense  smooth     PW     G-vecs:    dense   smooth      PW
     Min         695     695    179                77549    77549   10147
     Max         696     696    180                77554    77554   10150
     Sum       22251   22251   5743              2481609  2481609  324727



     bravais-lattice index     =            0
     lattice parameter (alat)  =      23.9902  a.u.
     unit-cell volume          =   13973.5034 (a.u.)^3
     number of atoms/cell      =           96
     number of atomic types    =            5
     number of electrons       =       432.00
     number of Kohn-Sham states=          216
     kinetic-energy cutoff     =     120.0000  Ry
     charge density cutoff     =     480.0000  Ry
     convergence threshold     =      1.0E-07
     mixing beta               =       0.7000
     number of iterations used =            8  plain     mixing
     Exchange-correlation      = SLA PW PBX PBC ( 1  4  3  4 0 0)
     nstep                     =          200


     celldm(1)=  23.990207  celldm(2)=   0.000000  celldm(3)=   0.000000
     celldm(4)=   0.000000  celldm(5)=   0.000000  celldm(6)=   0.000000

     crystal axes: (cart. coord. in units of alat)
               a(1) = (   1.000000   0.000000   0.000000 )  
               a(2) = (   0.000000   1.012543   0.000000 )  
               a(3) = (   0.000000   0.000000   0.999517 )  

     reciprocal axes: (cart. coord. in units 2 pi/alat)
               b(1) = (  1.000000  0.000000  0.000000 )  
               b(2) = (  0.000000  0.987613  0.000000 )  
               b(3) = (  0.000000  0.000000  1.000484 )  


     PseudoPot. # 1 for Pb read from file:
     ../../../Pseudopotential/Pb.pbe-dn-kjpaw_psl.1.0.0.UPF
     MD5 check sum: 684fc8fbce61a260853528575e4d9ab7
     Pseudo is Projector augmented-wave + core cor, Zval = 14.0
     Generated using "atomic" code by A. Dal Corso v.6.3
     Shape of augmentation charge: PSQ
     Using radial grid of 1281 points,  6 beta functions with: 
                l(1) =   0
                l(2) =   0
                l(3) =   1
                l(4) =   1
                l(5) =   2
                l(6) =   2
     Q(r) pseudized with 0 coefficients 


     PseudoPot. # 2 for I  read from file:
     ../../../Pseudopotential/I.pbe-n-kjpaw_psl.1.0.0.UPF
     MD5 check sum: cd3d296c3308a581e1559a0c8a554cb5
     Pseudo is Projector augmented-wave + core cor, Zval =  7.0
     Generated using "atomic" code by A. Dal Corso v.6.3
     Shape of augmentation charge: PSQ
     Using radial grid of 1247 points,  6 beta functions with: 
                l(1) =   0
                l(2) =   0
                l(3) =   1
                l(4) =   1
                l(5) =   2
                l(6) =   2
     Q(r) pseudized with 0 coefficients 


     PseudoPot. # 3 for C  read from file:
     ../../../Pseudopotential/C.pbe-n-kjpaw_psl.1.0.0.UPF
     MD5 check sum: 5f16ad9a65e90284d1d834d4ab3b0f7d
     Pseudo is Projector augmented-wave + core cor, Zval =  4.0
     Generated using "atomic" code by A. Dal Corso v.6.3
     Shape of augmentation charge: PSQ
     Using radial grid of 1073 points,  4 beta functions with: 
                l(1) =   0
                l(2) =   0
                l(3) =   1
                l(4) =   1
     Q(r) pseudized with 0 coefficients 


     PseudoPot. # 4 for N  read from file:
     ../../../Pseudopotential/N.pbe-n-kjpaw_psl.1.0.0.UPF
     MD5 check sum: 14c48229446f9f2d411169a3abcbc3fa
     Pseudo is Projector augmented-wave + core cor, Zval =  5.0
     Generated using "atomic" code by A. Dal Corso v.6.3
     Shape of augmentation charge: PSQ
     Using radial grid of 1085 points,  4 beta functions with: 
                l(1) =   0
                l(2) =   0
                l(3) =   1
                l(4) =   1
     Q(r) pseudized with 0 coefficients 


     PseudoPot. # 5 for H  read from file:
     ../../../Pseudopotential/H.pbe-kjpaw_psl.1.0.0.UPF
     MD5 check sum: d81a744832360e4a8af0b0b5b123bc2a
     Pseudo is Projector augmented-wave, Zval =  1.0
     Generated using "atomic" code by A. Dal Corso v.6.3MaX
     Shape of augmentation charge: PSQ
     Using radial grid of  929 points,  2 beta functions with: 
                l(1) =   0
                l(2) =   0
     Q(r) pseudized with 0 coefficients 


     atomic species   valence    mass     pseudopotential
        Pb            14.00   207.97600     Pb( 1.00)
        I              7.00   126.90400     I ( 1.00)
        C              4.00    12.00000     C ( 1.00)
        N              5.00    14.00300     N ( 1.00)
        H              1.00     1.00700     H ( 1.00)

     No symmetry found



   Cartesian axes

     site n.     atom                  positions (alat units)
         1           Pb  tau(   1) = (  -0.0124411  -0.0241708   0.0079102  )
         2           Pb  tau(   2) = (   0.4861272  -0.0189011   0.0022604  )
         3           Pb  tau(   3) = (  -0.0142563   0.4878629   0.0099607  )
         4           Pb  tau(   4) = (   0.0231980  -0.0186019   0.5118136  )
         5           Pb  tau(   5) = (   0.4871826   0.4887036  -0.0037801  )
         6           Pb  tau(   6) = (   0.0207496   0.4839747   0.5059031  )
         7           Pb  tau(   7) = (   0.5256940  -0.0180080   0.5027694  )
         8           Pb  tau(   8) = (   0.5203116   0.4914872   0.4999381  )
         9           I   tau(   9) = (   0.2368027  -0.0094281  -0.0412737  )
        10           I   tau(  10) = (   0.7370845  -0.0045087   0.0432530  )
        11           I   tau(  11) = (   0.2354572   0.4940264   0.0590188  )
        12           I   tau(  12) = (   0.2717739  -0.0308572   0.5261781  )
        13           I   tau(  13) = (   0.7362377   0.4960206  -0.0528023  )
        14           I   tau(  14) = (   0.2720989   0.4797792   0.4604134  )
        15           I   tau(  15) = (   0.7718527  -0.0176498   0.4798588  )
        16           I   tau(  16) = (   0.7725346   0.4675083   0.5395084  )
        17           I   tau(  17) = (  -0.0290476   0.2360644   0.0080110  )
        18           I   tau(  18) = (   0.4705201   0.2351743   0.0085709  )
        19           I   tau(  19) = (  -0.0309284   0.7417882   0.0024553  )
        20           I   tau(  20) = (   0.0426566   0.2326902   0.5033895  )
        21           I   tau(  21) = (   0.4699485   0.7418526  -0.0009199  )
        22           I   tau(  22) = (   0.0250395   0.7378672   0.5114977  )
        23           I   tau(  23) = (   0.5323819   0.2340156   0.5036853  )
        24           I   tau(  24) = (   0.5418359   0.7405381   0.5040758  )
        25           I   tau(  25) = (   0.0355465  -0.0333455   0.2581827  )
        26           I   tau(  26) = (   0.4695705  -0.0216624   0.2538548  )
        27           I   tau(  27) = (  -0.0510329   0.4898802   0.2579146  )
        28           I   tau(  28) = (  -0.0413990  -0.0187791   0.7582382  )
        29           I   tau(  29) = (   0.5520272   0.4890177   0.2469508  )
        30           I   tau(  30) = (   0.0507148   0.4840511   0.7579780  )
        31           I   tau(  31) = (   0.5330517  -0.0244798   0.7549726  )
        32           I   tau(  32) = (   0.4565439   0.4750044   0.7478615  )
        33           C   tau(  33) = (   0.2361992   0.2543822   0.2508219  )
        34           C   tau(  34) = (   0.7632618   0.2577245   0.2768510  )
        35           C   tau(  35) = (   0.2458893   0.7433895   0.2941326  )
        36           C   tau(  36) = (   0.2583204   0.2543600   0.7332707  )
        37           C   tau(  37) = (   0.7507733   0.8023013   0.2521427  )
        38           C   tau(  38) = (   0.2542672   0.7818730   0.7470611  )
        39           C   tau(  39) = (   0.7335331   0.2557689   0.7556220  )
        40           C   tau(  40) = (   0.7588524   0.7604924   0.7349733  )
        41           N   tau(  41) = (   0.2037044   0.1994850   0.1694129  )
        42           N   tau(  42) = (   0.6928465   0.2385042   0.2034235  )
        43           N   tau(  43) = (   0.1638991   0.6876807   0.2648240  )
        44           N   tau(  44) = (   0.1874272   0.2370351   0.8066933  )
        45           N   tau(  45) = (   0.6647788   0.7525042   0.2232033  )
        46           N   tau(  46) = (   0.1762454   0.7406140   0.8011183  )
        47           N   tau(  47) = (   0.7047170   0.2049381   0.8409964  )
        48           N   tau(  48) = (   0.6885322   0.7530639   0.8105558  )
        49           N   tau(  49) = (   0.3142509   0.2274771   0.3132019  )
        50           N   tau(  50) = (   0.8473709   0.2001706   0.2945986  )
        51           N   tau(  51) = (   0.3419141   0.7294874   0.2581742  )
        52           N   tau(  52) = (   0.3393880   0.1931398   0.7138850  )
        53           N   tau(  53) = (   0.8402310   0.7576552   0.2782225  )
        54           N   tau(  54) = (   0.3285232   0.7274156   0.7000114  )
        55           N   tau(  55) = (   0.8104594   0.2269070   0.6927629  )
        56           N   tau(  56) = (   0.8362519   0.6934491   0.7203769  )
        57           H   tau(  57) = (   0.1958231   0.3283384   0.2681267  )
        58           H   tau(  58) = (   0.7508219   0.3267089   0.3268523  )
        59           H   tau(  59) = (   0.2339461   0.8055024   0.3526295  )
        60           H   tau(  60) = (   0.2493500   0.3251045   0.6851146  )
        61           H   tau(  61) = (   0.7476164   0.8881055   0.2546847  )
        62           H   tau(  62) = (   0.2573910   0.8674963   0.7400585  )
        63           H   tau(  63) = (   0.6906741   0.3275397   0.7351694  )
        64           H   tau(  64) = (   0.7528412   0.8271430   0.6808014  )
        65           H   tau(  65) = (   0.2375173   0.1301107   0.1469101  )
        66           H   tau(  66) = (   0.6986721   0.1754383   0.1533000  )
        67           H   tau(  67) = (   0.1697853   0.6271822   0.2114991  )
        68           H   tau(  68) = (   0.1907368   0.1727927   0.8555142  )
        69           H   tau(  69) = (   0.6571510   0.6720751   0.2218203  )
        70           H   tau(  70) = (   0.1632564   0.6610687   0.8055857  )
        71           H   tau(  71) = (   0.7406300   0.1375547   0.8663839  )
        72           H   tau(  72) = (   0.6891777   0.6923208   0.8636997  )
        73           H   tau(  73) = (   0.1415532   0.2253567   0.1246661  )
        74           H   tau(  74) = (   0.6304856   0.2885801   0.1948559  )
        75           H   tau(  75) = (   0.0941481   0.6986996   0.3028630  )
        76           H   tau(  76) = (   0.1270268   0.2894048   0.8157598  )
        77           H   tau(  77) = (   0.6003934   0.7956284   0.2025006  )
        78           H   tau(  78) = (   0.1222559   0.7876890   0.8373430  )
        79           H   tau(  79) = (   0.6428787   0.2315374   0.8854371  )
        80           H   tau(  80) = (   0.6297173   0.8077944   0.8150328  )
        81           H   tau(  81) = (   0.3569342   0.1597907   0.3030259  )
        82           H   tau(  82) = (   0.8653599   0.1342736   0.2522158  )
        83           H   tau(  83) = (   0.3596797   0.6747063   0.2021243  )
        84           H   tau(  84) = (   0.3540300   0.1257089   0.7550702  )
        85           H   tau(  85) = (   0.8533903   0.6779311   0.2752687  )
        86           H   tau(  86) = (   0.3360843   0.6473447   0.7073322  )
        87           H   tau(  87) = (   0.8546074   0.1604483   0.7056717  )
        88           H   tau(  88) = (   0.8460673   0.6285385   0.7667423  )
        89           H   tau(  89) = (   0.3335712   0.2752449   0.3749518  )
        90           H   tau(  90) = (   0.8983103   0.2198490   0.3540983  )
        91           H   tau(  91) = (   0.3996121   0.7807515   0.2803503  )
        92           H   tau(  92) = (   0.3919402   0.2125349   0.6556495  )
        93           H   tau(  93) = (   0.9023773   0.8053671   0.2966923  )
        94           H   tau(  94) = (   0.3852563   0.7645547   0.6566220  )
        95           H   tau(  95) = (   0.8264719   0.2720709   0.6281229  )
        96           H   tau(  96) = (   0.8883181   0.7047682   0.6597462  )

     number of k points=    32
                       cart. coord. in units 2pi/alat
        k(    1) = (   0.1250000   0.1234516   0.1250605), wk =   0.0625000
        k(    2) = (   0.1250000   0.1234516   0.3751814), wk =   0.0625000
        k(    3) = (   0.1250000   0.3703548   0.1250605), wk =   0.0625000
        k(    4) = (   0.1250000   0.3703548   0.3751814), wk =   0.0625000
        k(    5) = (   0.3750000   0.1234516   0.1250605), wk =   0.0625000
        k(    6) = (   0.3750000   0.1234516   0.3751814), wk =   0.0625000
        k(    7) = (   0.3750000   0.3703548   0.1250605), wk =   0.0625000
        k(    8) = (   0.3750000   0.3703548   0.3751814), wk =   0.0625000
        k(    9) = (  -0.1250000  -0.1234516   0.1250605), wk =   0.0625000
        k(   10) = (  -0.1250000   0.1234516  -0.1250605), wk =   0.0625000
        k(   11) = (   0.1250000  -0.1234516  -0.1250605), wk =   0.0625000
        k(   12) = (  -0.1250000  -0.1234516   0.3751814), wk =   0.0625000
        k(   13) = (  -0.1250000   0.1234516  -0.3751814), wk =   0.0625000
        k(   14) = (   0.1250000  -0.1234516  -0.3751814), wk =   0.0625000
        k(   15) = (  -0.1250000  -0.3703548   0.1250605), wk =   0.0625000
        k(   16) = (  -0.1250000   0.3703548  -0.1250605), wk =   0.0625000
        k(   17) = (   0.1250000  -0.3703548  -0.1250605), wk =   0.0625000
        k(   18) = (  -0.1250000  -0.3703548   0.3751814), wk =   0.0625000
        k(   19) = (  -0.1250000   0.3703548  -0.3751814), wk =   0.0625000
        k(   20) = (   0.1250000  -0.3703548  -0.3751814), wk =   0.0625000
        k(   21) = (  -0.3750000  -0.1234516   0.1250605), wk =   0.0625000
        k(   22) = (  -0.3750000   0.1234516  -0.1250605), wk =   0.0625000
        k(   23) = (   0.3750000  -0.1234516  -0.1250605), wk =   0.0625000
        k(   24) = (  -0.3750000  -0.1234516   0.3751814), wk =   0.0625000
        k(   25) = (  -0.3750000   0.1234516  -0.3751814), wk =   0.0625000
        k(   26) = (   0.3750000  -0.1234516  -0.3751814), wk =   0.0625000
        k(   27) = (  -0.3750000  -0.3703548   0.1250605), wk =   0.0625000
        k(   28) = (  -0.3750000   0.3703548  -0.1250605), wk =   0.0625000
        k(   29) = (   0.3750000  -0.3703548  -0.1250605), wk =   0.0625000
        k(   30) = (  -0.3750000  -0.3703548   0.3751814), wk =   0.0625000
        k(   31) = (  -0.3750000   0.3703548  -0.3751814), wk =   0.0625000
        k(   32) = (   0.3750000  -0.3703548  -0.3751814), wk =   0.0625000

     Dense  grid:  2481609 G-vectors     FFT dimensions: ( 180, 180, 180)

     Estimated max dynamical RAM per process >       1.82 GB

     Estimated total dynamical RAM >      58.17 GB

     Initial potential from superposition of free atoms

     starting charge  431.97851, renormalised to  432.00000
     Starting wfcs are  304 randomized atomic wfcs
     Checking if some PAW data can be deallocated... 

     total cpu time spent up to now is     1053.7 secs

     Self-consistent Calculation

     iteration #  1     ecut=   120.00 Ry     beta= 0.70
     Davidson diagonalization with overlap
     ethr =  1.00E-02,  avg # of iterations =  2.0

     total cpu time spent up to now is     3317.1 secs

     total energy              =  -16705.01441675 Ry
     Harris-Foulkes estimate   =  -16709.28715413 Ry
     estimated scf accuracy    <       6.76312968 Ry

     iteration #  2     ecut=   120.00 Ry     beta= 0.70
     Davidson diagonalization with overlap
     ethr =  1.57E-03,  avg # of iterations =  4.0

     total cpu time spent up to now is     6314.4 secs

     total energy              =  -16706.55279382 Ry
     Harris-Foulkes estimate   =  -16708.64535408 Ry
     estimated scf accuracy    <       3.90154330 Ry

     iteration #  3     ecut=   120.00 Ry     beta= 0.70
     Davidson diagonalization with overlap
     ethr =  9.03E-04,  avg # of iterations =  3.0

     total cpu time spent up to now is     8555.1 secs

     total energy              =  -16707.41806534 Ry
     Harris-Foulkes estimate   =  -16707.48494638 Ry
     estimated scf accuracy    <       0.14554281 Ry

     iteration #  4     ecut=   120.00 Ry     beta= 0.70
     Davidson diagonalization with overlap
     ethr =  3.37E-05,  avg # of iterations =  4.0

     total cpu time spent up to now is    11187.8 secs

     total energy              =  -16707.46155534 Ry
     Harris-Foulkes estimate   =  -16707.48119711 Ry
     estimated scf accuracy    <       0.03904176 Ry

     iteration #  5     ecut=   120.00 Ry     beta= 0.70
     Davidson diagonalization with overlap
     ethr =  9.04E-06,  avg # of iterations =  3.0

     total cpu time spent up to now is    13280.9 secs

     total energy              =  -16707.46898933 Ry
     Harris-Foulkes estimate   =  -16707.47019609 Ry
     estimated scf accuracy    <       0.00224632 Ry

     iteration #  6     ecut=   120.00 Ry     beta= 0.70
     Davidson diagonalization with overlap
     ethr =  5.20E-07,  avg # of iterations =  4.0

     total cpu time spent up to now is    15974.5 secs

     total energy              =  -16707.46961969 Ry
     Harris-Foulkes estimate   =  -16707.47015650 Ry
     estimated scf accuracy    <       0.00118567 Ry

     iteration #  7     ecut=   120.00 Ry     beta= 0.70
     Davidson diagonalization with overlap
     ethr =  2.74E-07,  avg # of iterations =  3.9

     total cpu time spent up to now is    18029.7 secs

     total energy              =  -16707.46987466 Ry
     Harris-Foulkes estimate   =  -16707.46991276 Ry
     estimated scf accuracy    <       0.00008653 Ry

     iteration #  8     ecut=   120.00 Ry     beta= 0.70
     Davidson diagonalization with overlap
     ethr =  2.00E-08,  avg # of iterations =  4.0

     total cpu time spent up to now is    20973.4 secs

     total energy              =  -16707.46989731 Ry
     Harris-Foulkes estimate   =  -16707.46990657 Ry
     estimated scf accuracy    <       0.00002042 Ry

     iteration #  9     ecut=   120.00 Ry     beta= 0.70
     Davidson diagonalization with overlap
     ethr =  4.73E-09,  avg # of iterations =  4.0

     total cpu time spent up to now is    23792.2 secs

     total energy              =  -16707.46990167 Ry
     Harris-Foulkes estimate   =  -16707.46990257 Ry
     estimated scf accuracy    <       0.00000188 Ry

     iteration # 10     ecut=   120.00 Ry     beta= 0.70
     Davidson diagonalization with overlap
     ethr =  4.35E-10,  avg # of iterations =  4.0

     total cpu time spent up to now is    26451.6 secs

     total energy              =  -16707.46990213 Ry
     Harris-Foulkes estimate   =  -16707.46990227 Ry
     estimated scf accuracy    <       0.00000031 Ry

     iteration # 11     ecut=   120.00 Ry     beta= 0.70
     Davidson diagonalization with overlap
     ethr =  7.26E-11,  avg # of iterations =  4.0

     total cpu time spent up to now is    29107.3 secs

     End of self-consistent calculation

          k = 0.1250 0.1235 0.1251 (310212 PWs)   bands (ev):

   -17.9583 -17.8927 -17.8898 -17.8587 -17.8465 -17.8349 -17.8233 -17.7948
   -15.7342 -15.7104 -15.6717 -15.6343 -15.6251 -15.6041 -15.5996 -15.5479
   -14.3390 -14.3299 -14.3016 -14.2981 -14.2920 -14.2915 -14.2872 -14.2804
   -14.2713 -14.2600 -14.2553 -14.2543 -14.2534 -14.2513 -14.2510 -14.2494
   -14.2420 -14.2416 -14.2412 -14.2409 -14.2381 -14.2344 -14.2262 -14.2250
   -14.2230 -14.2204 -14.2201 -14.2180 -14.2168 -14.2165 -14.2160 -14.2119
   -14.2014 -14.2011 -14.1992 -14.1925 -14.1916 -14.1896 -14.1858 -14.1793
    -9.8157  -9.7724  -9.7158  -9.6943  -9.6573  -9.6367  -9.5965  -9.5819
    -9.4810  -9.4759  -9.4106  -9.3745  -9.3446  -9.3047  -9.2874  -9.2464
    -9.2206  -9.1841  -9.1746  -9.1439  -9.1225  -9.1111  -9.0834  -9.0606
    -9.0464  -9.0219  -9.0009  -8.9824  -8.9603  -8.9493  -8.8917  -8.8537
    -7.8049  -7.7253  -7.6907  -7.6712  -7.6588  -7.6395  -7.6323  -7.6185
    -7.0983  -7.0836  -7.0739  -7.0291  -7.0230  -7.0005  -6.9911  -6.9230
    -5.8785  -5.4944  -5.4693  -5.4272  -5.4026  -5.3553  -5.3470  -5.3336
    -5.3207  -5.3017  -5.2900  -5.2699  -5.0401  -4.9909  -4.9799  -4.5895
    -3.8876  -3.8538  -3.8387  -3.8134  -3.7950  -3.7873  -3.7648  -3.7493
    -3.3308  -3.3073  -3.2997  -3.2590  -3.2571  -3.2468  -3.2292  -3.1907
    -0.8882  -0.8577  -0.8154  -0.7585  -0.7313  -0.7083  -0.6885  -0.6512
    -0.6133  -0.5921  -0.5313  -0.4947  -0.1863  -0.1584  -0.1245  -0.1080
    -0.0780  -0.0480  -0.0187   0.0183   0.3538   0.4156   0.4486   0.4767
     0.4946   0.5131   0.5358   0.5576   0.5831   0.6330   0.6768   0.7423
     0.7756   0.8003   0.8498   0.8689   0.8889   0.9177   0.9439   0.9682
     0.9926   1.0173   1.0262   1.0440   1.0557   1.0709   1.0888   1.0971
     1.1124   1.1390   1.1580   1.1805   1.1902   1.2055   1.2309   1.2483
     1.2641   1.2800   1.2990   1.3083   1.3278   1.3385   1.3645   1.4055
     1.4192   1.4480   1.4619   1.4726   1.5035   1.5215   1.5761   1.6026
     1.6579   1.6984   1.7121   1.7526   1.7980   1.8422   1.8646   2.1097

          k = 0.1250 0.1235 0.3752 (310167 PWs)   bands (ev):

   -17.9583 -17.8927 -17.8898 -17.8587 -17.8465 -17.8349 -17.8233 -17.7948
   -15.7342 -15.7104 -15.6716 -15.6343 -15.6250 -15.6042 -15.5997 -15.5479
   -14.3389 -14.3299 -14.3016 -14.2981 -14.2920 -14.2914 -14.2869 -14.2801
   -14.2711 -14.2598 -14.2553 -14.2548 -14.2534 -14.2511 -14.2509 -14.2497
   -14.2420 -14.2416 -14.2411 -14.2411 -14.2381 -14.2345 -14.2262 -14.2252
   -14.2230 -14.2205 -14.2201 -14.2180 -14.2168 -14.2165 -14.2160 -14.2119
   -14.2014 -14.2011 -14.1992 -14.1925 -14.1916 -14.1896 -14.1858 -14.1793
    -9.7974  -9.7641  -9.7182  -9.6910  -9.6642  -9.6515  -9.6215  -9.5881
    -9.4841  -9.4503  -9.4067  -9.3763  -9.3496  -9.3087  -9.2944  -9.2706
    -9.2259  -9.2014  -9.1472  -9.1239  -9.1076  -9.0894  -9.0734  -9.0595
    -9.0408  -9.0234  -8.9978  -8.9922  -8.9745  -8.9536  -8.8992  -8.8561
    -7.8050  -7.7254  -7.6898  -7.6716  -7.6581  -7.6392  -7.6340  -7.6186
    -7.0983  -7.0836  -7.0739  -7.0293  -7.0229  -7.0004  -6.9912  -6.9229
    -5.7634  -5.5894  -5.4867  -5.3655  -5.3555  -5.3428  -5.3352  -5.3234
    -5.3049  -5.2942  -5.2757  -5.2682  -5.1563  -5.1142  -4.8976  -4.7197
    -3.8865  -3.8529  -3.8375  -3.8160  -3.7955  -3.7857  -3.7664  -3.7496
    -3.3307  -3.3068  -3.2996  -3.2594  -3.2568  -3.2469  -3.2295  -3.1906
    -0.8581  -0.8040  -0.7448  -0.7141  -0.6776  -0.6330  -0.6222  -0.5530
    -0.4344  -0.3908  -0.2995  -0.2274  -0.1724  -0.1333  -0.1198  -0.1033
    -0.0643  -0.0431  -0.0286   0.0163   0.1591   0.2313   0.2973   0.3786
     0.4013   0.4286   0.4493   0.5110   0.5218   0.5525   0.5640   0.5971
     0.6358   0.7097   0.8255   0.8446   0.8852   0.9114   0.9192   0.9523
     0.9650   0.9796   1.0100   1.0303   1.0510   1.0605   1.0954   1.1127
     1.1370   1.1459   1.1657   1.1799   1.2170   1.2267   1.2441   1.2584
     1.2741   1.2904   1.3001   1.3190   1.3392   1.3540   1.3706   1.3753
     1.4155   1.4370   1.4458   1.4749   1.5048   1.5249   1.5353   1.5610
     1.6270   1.6541   1.6697   1.6877   1.7485   1.7601   1.8334   1.9680

          k = 0.1250 0.3704 0.1251 (310130 PWs)   bands (ev):

   -17.9583 -17.8927 -17.8898 -17.8587 -17.8465 -17.8349 -17.8233 -17.7948
   -15.7342 -15.7104 -15.6717 -15.6343 -15.6251 -15.6041 -15.5996 -15.5479
   -14.3390 -14.3298 -14.3016 -14.2981 -14.2920 -14.2915 -14.2869 -14.2800
   -14.2712 -14.2602 -14.2553 -14.2545 -14.2534 -14.2513 -14.2510 -14.2498
   -14.2420 -14.2417 -14.2412 -14.2406 -14.2381 -14.2342 -14.2262 -14.2245
   -14.2230 -14.2201 -14.2200 -14.2180 -14.2176 -14.2168 -14.2161 -14.2119
   -14.2014 -14.2011 -14.1992 -14.1925 -14.1916 -14.1896 -14.1858 -14.1793
    -9.8088  -9.7792  -9.7132  -9.6946  -9.6561  -9.6373  -9.5954  -9.5851
    -9.4764  -9.4476  -9.4050  -9.3912  -9.3546  -9.3315  -9.2975  -9.2883
    -9.2206  -9.1786  -9.1549  -9.1445  -9.1083  -9.0941  -9.0666  -9.0538
    -9.0352  -9.0255  -9.0049  -8.9745  -8.9680  -8.9444  -8.8967  -8.8720
    -7.8041  -7.7246  -7.6912  -7.6676  -7.6596  -7.6420  -7.6314  -7.6197
    -7.0981  -7.0836  -7.0738  -7.0286  -7.0232  -7.0010  -6.9911  -6.9231
    -5.7641  -5.5626  -5.4890  -5.3675  -5.3546  -5.3479  -5.3391  -5.3208
    -5.3093  -5.2988  -5.2865  -5.2626  -5.1485  -5.1133  -4.9070  -4.7317
    -3.8859  -3.8532  -3.8397  -3.8126  -3.7951  -3.7882  -3.7650  -3.7494
    -3.3310  -3.3059  -3.3005  -3.2578  -3.2566  -3.2490  -3.2293  -3.1909
    -0.8811  -0.8489  -0.7237  -0.7136  -0.6944  -0.6318  -0.5796  -0.5326
    -0.3862  -0.3476  -0.2865  -0.2036  -0.1653  -0.1363  -0.1229  -0.0960
    -0.0832  -0.0568  -0.0192   0.0138   0.1987   0.2488   0.3264   0.3541
     0.4031   0.4732   0.4909   0.5099   0.5262   0.5340   0.5500   0.6286
     0.6497   0.7092   0.7467   0.7713   0.8205   0.8677   0.9110   0.9307
     0.9598   1.0054   1.0165   1.0320   1.0557   1.0741   1.0848   1.1079
     1.1227   1.1407   1.1713   1.1908   1.2074   1.2260   1.2362   1.2660
     1.2755   1.2906   1.3060   1.3204   1.3335   1.3616   1.3824   1.4080
     1.4147   1.4371   1.4491   1.4701   1.4962   1.5088   1.5373   1.5571
     1.5826   1.6118   1.6430   1.6923   1.7188   1.7325   1.8568   1.9296

          k = 0.1250 0.3704 0.3752 (310209 PWs)   bands (ev):

   -17.9583 -17.8927 -17.8898 -17.8587 -17.8465 -17.8349 -17.8233 -17.7948
   -15.7342 -15.7104 -15.6716 -15.6343 -15.6250 -15.6042 -15.5997 -15.5479
   -14.3389 -14.3297 -14.3016 -14.2981 -14.2920 -14.2914 -14.2866 -14.2797
   -14.2710 -14.2600 -14.2554 -14.2550 -14.2534 -14.2511 -14.2509 -14.2501
   -14.2420 -14.2418 -14.2411 -14.2408 -14.2381 -14.2344 -14.2262 -14.2248
   -14.2230 -14.2201 -14.2201 -14.2180 -14.2176 -14.2168 -14.2161 -14.2119
   -14.2014 -14.2011 -14.1992 -14.1925 -14.1916 -14.1896 -14.1858 -14.1793
    -9.7927  -9.7675  -9.7162  -9.6901  -9.6616  -9.6542  -9.6219  -9.5892
    -9.4735  -9.4350  -9.4041  -9.3873  -9.3564  -9.3308  -9.3113  -9.2918
    -9.2414  -9.1660  -9.1506  -9.1196  -9.0950  -9.0860  -9.0702  -9.0519
    -9.0370  -9.0183  -9.0025  -8.9867  -8.9747  -8.9388  -8.9066  -8.8750
    -7.8041  -7.7246  -7.6902  -7.6685  -7.6584  -7.6420  -7.6333  -7.6195
    -7.0981  -7.0837  -7.0739  -7.0287  -7.0231  -7.0010  -6.9912  -6.9230
    -5.6529  -5.5064  -5.4852  -5.4253  -5.3585  -5.3515  -5.3404  -5.3259
    -5.3138  -5.2927  -5.2777  -5.2315  -5.2137  -5.0514  -5.0177  -4.8594
    -3.8850  -3.8524  -3.8381  -3.8143  -3.7966  -3.7862  -3.7664  -3.7494
    -3.3309  -3.3056  -3.3006  -3.2578  -3.2569  -3.2491  -3.2295  -3.1910
    -0.8465  -0.7241  -0.6635  -0.5916  -0.4684  -0.4302  -0.3604  -0.3444
    -0.2988  -0.2875  -0.2511  -0.2340  -0.1568  -0.1321  -0.1081  -0.0828
    -0.0736  -0.0495  -0.0259   0.0116   0.1258   0.2123   0.2285   0.2628
     0.3066   0.3277   0.3419   0.3789   0.4415   0.5185   0.5282   0.5673
     0.6148   0.6584   0.7221   0.7526   0.7821   0.8238   0.8278   0.8548
     0.8741   0.9309   0.9509   0.9935   0.9972   1.0429   1.0543   1.0892
     1.1283   1.1497   1.1584   1.1865   1.2170   1.2369   1.2444   1.2682
     1.2970   1.3139   1.3187   1.3388   1.3525   1.3720   1.3841   1.4001
     1.4086   1.4222   1.4548   1.4675   1.4839   1.4919   1.5267   1.5546
     1.5636   1.5930   1.6215   1.6569   1.6719   1.7002   1.7292   1.8129

          k = 0.3750 0.1235 0.1251 (310180 PWs)   bands (ev):

   -17.9582 -17.8927 -17.8900 -17.8587 -17.8465 -17.8349 -17.8233 -17.7948
   -15.7304 -15.7142 -15.6716 -15.6342 -15.6251 -15.6040 -15.5997 -15.5480
   -14.3388 -14.3298 -14.3016 -14.2981 -14.2921 -14.2918 -14.2872 -14.2804
   -14.2711 -14.2599 -14.2553 -14.2542 -14.2534 -14.2510 -14.2503 -14.2494
   -14.2428 -14.2419 -14.2412 -14.2406 -14.2381 -14.2336 -14.2262 -14.2253
   -14.2230 -14.2207 -14.2201 -14.2180 -14.2169 -14.2168 -14.2162 -14.2119
   -14.2014 -14.2011 -14.1992 -14.1925 -14.1916 -14.1896 -14.1858 -14.1793
    -9.7884  -9.7487  -9.7321  -9.7079  -9.6840  -9.6364  -9.5993  -9.5891
    -9.4961  -9.4656  -9.4018  -9.3651  -9.3479  -9.3212  -9.2807  -9.2513
    -9.2133  -9.1887  -9.1696  -9.1524  -9.1228  -9.1093  -9.0944  -9.0590
    -9.0211  -9.0077  -8.9902  -8.9776  -8.9547  -8.9399  -8.9120  -8.8749
    -7.8021  -7.7302  -7.6907  -7.6710  -7.6590  -7.6404  -7.6326  -7.6187
    -7.0970  -7.0837  -7.0736  -7.0289  -7.0229  -7.0008  -6.9906  -6.9230
    -5.7599  -5.5805  -5.4620  -5.3769  -5.3624  -5.3539  -5.3328  -5.3203
    -5.3019  -5.2983  -5.2772  -5.2653  -5.1643  -5.1177  -4.8937  -4.7264
    -3.8881  -3.8526  -3.8391  -3.8133  -3.7938  -3.7887  -3.7654  -3.7496
    -3.3300  -3.3066  -3.2997  -3.2587  -3.2560  -3.2446  -3.2331  -3.1926
    -0.8548  -0.8027  -0.7604  -0.7558  -0.6959  -0.6539  -0.6321  -0.5891
    -0.4406  -0.3286  -0.2626  -0.2095  -0.1540  -0.1351  -0.1091  -0.0943
    -0.0670  -0.0312  -0.0180   0.0094   0.1271   0.2433   0.3310   0.3939
     0.4228   0.4600   0.4666   0.5139   0.5269   0.5536   0.5770   0.6253
     0.6768   0.7022   0.7964   0.8316   0.8464   0.8725   0.9209   0.9369
     0.9587   0.9903   1.0094   1.0253   1.0451   1.0691   1.0791   1.1043
     1.1206   1.1506   1.1576   1.1934   1.2050   1.2221   1.2431   1.2619
     1.2659   1.2946   1.3078   1.3227   1.3408   1.3567   1.3857   1.4054
     1.4407   1.4459   1.4699   1.4897   1.5017   1.5180   1.5596   1.5844
     1.6170   1.6250   1.6393   1.6674   1.6963   1.7306   1.8290   1.9133

          k = 0.3750 0.1235 0.3752 (310216 PWs)   bands (ev):

   -17.9582 -17.8927 -17.8900 -17.8587 -17.8465 -17.8349 -17.8233 -17.7948
   -15.7304 -15.7142 -15.6716 -15.6342 -15.6250 -15.6040 -15.5998 -15.5480
   -14.3386 -14.3298 -14.3016 -14.2981 -14.2921 -14.2917 -14.2869 -14.2801
   -14.2708 -14.2597 -14.2553 -14.2547 -14.2534 -14.2510 -14.2500 -14.2496
   -14.2428 -14.2419 -14.2411 -14.2408 -14.2381 -14.2337 -14.2263 -14.2255
   -14.2230 -14.2209 -14.2201 -14.2180 -14.2169 -14.2168 -14.2162 -14.2119
   -14.2014 -14.2011 -14.1992 -14.1925 -14.1916 -14.1896 -14.1858 -14.1793
    -9.7730  -9.7418  -9.7195  -9.7039  -9.6870  -9.6595  -9.6289  -9.5948
    -9.4701  -9.4593  -9.4156  -9.3891  -9.3376  -9.3143  -9.2946  -9.2742
    -9.2163  -9.2007  -9.1464  -9.1255  -9.1062  -9.0946  -9.0771  -9.0576
    -9.0282  -9.0149  -8.9912  -8.9750  -8.9624  -8.9472  -8.9154  -8.8804
    -7.8020  -7.7303  -7.6897  -7.6716  -7.6574  -7.6413  -7.6344  -7.6193
    -7.0970  -7.0836  -7.0735  -7.0290  -7.0228  -7.0008  -6.9906  -6.9230
    -5.6486  -5.4947  -5.4702  -5.4471  -5.3751  -5.3553  -5.3358  -5.3277
    -5.3036  -5.2970  -5.2771  -5.2635  -5.1905  -5.0418  -5.0102  -4.8562
    -3.8871  -3.8518  -3.8378  -3.8156  -3.7931  -3.7884  -3.7671  -3.7497
    -3.3300  -3.3064  -3.2995  -3.2583  -3.2560  -3.2445  -3.2332  -3.1924
    -0.7831  -0.7600  -0.6967  -0.6613  -0.5032  -0.4589  -0.4110  -0.3524
    -0.3301  -0.2647  -0.2437  -0.1904  -0.1539  -0.1324  -0.1026  -0.0832
    -0.0594  -0.0454  -0.0132   0.0051   0.1048   0.2026   0.2320   0.2624
     0.3115   0.3202   0.3677   0.4191   0.4452   0.4783   0.5175   0.5336
     0.6530   0.7156   0.7491   0.7714   0.8169   0.8285   0.8470   0.8761
     0.9274   0.9449   0.9617   0.9776   1.0037   1.0427   1.0589   1.0833
     1.1149   1.1309   1.1638   1.1833   1.2063   1.2276   1.2466   1.2739
     1.2888   1.2997   1.3244   1.3363   1.3524   1.3577   1.3729   1.3993
     1.4143   1.4325   1.4525   1.4833   1.4896   1.5157   1.5348   1.5582
     1.5730   1.5909   1.6237   1.6615   1.6696   1.7105   1.7436   1.7859

          k = 0.3750 0.3704 0.1251 (310216 PWs)   bands (ev):

   -17.9582 -17.8927 -17.8900 -17.8587 -17.8465 -17.8349 -17.8233 -17.7948
   -15.7304 -15.7142 -15.6716 -15.6342 -15.6251 -15.6040 -15.5997 -15.5480
   -14.3388 -14.3296 -14.3016 -14.2981 -14.2921 -14.2917 -14.2869 -14.2800
   -14.2709 -14.2601 -14.2553 -14.2545 -14.2534 -14.2510 -14.2503 -14.2498
   -14.2429 -14.2419 -14.2412 -14.2403 -14.2381 -14.2336 -14.2262 -14.2246
   -14.2230 -14.2204 -14.2201 -14.2184 -14.2180 -14.2168 -14.2162 -14.2119
   -14.2014 -14.2011 -14.1992 -14.1925 -14.1916 -14.1896 -14.1858 -14.1793
    -9.7848  -9.7522  -9.7291  -9.7074  -9.6834  -9.6373  -9.5993  -9.5878
    -9.4849  -9.4517  -9.4078  -9.3832  -9.3508  -9.3420  -9.2857  -9.2775
    -9.2144  -9.1897  -9.1591  -9.1369  -9.1229  -9.0983  -9.0754  -9.0546
    -9.0257  -8.9994  -8.9887  -8.9702  -8.9550  -8.9392  -8.9188  -8.8905
    -7.8015  -7.7293  -7.6911  -7.6678  -7.6596  -7.6430  -7.6315  -7.6197
    -7.0970  -7.0835  -7.0736  -7.0283  -7.0231  -7.0015  -6.9906  -6.9230
    -5.6495  -5.4831  -5.4640  -5.4419  -5.3769  -5.3606  -5.3347  -5.3248
    -5.3058  -5.2951  -5.2720  -5.2452  -5.2093  -5.0527  -5.0231  -4.8664
    -3.8866  -3.8526  -3.8391  -3.8127  -3.7934  -3.7900  -3.7653  -3.7496
    -3.3301  -3.3061  -3.2996  -3.2591  -3.2551  -3.2460  -3.2330  -3.1928
    -0.8476  -0.7357  -0.6830  -0.6152  -0.5452  -0.4425  -0.3869  -0.3438
    -0.2946  -0.2497  -0.2115  -0.1760  -0.1401  -0.1078  -0.0953  -0.0861
    -0.0698  -0.0354  -0.0268   0.0012   0.0575   0.1959   0.2322   0.2509
     0.3338   0.3582   0.4168   0.4466   0.4804   0.4918   0.5273   0.5536
     0.5978   0.6774   0.7020   0.7253   0.7896   0.8188   0.8573   0.8850
     0.9181   0.9408   0.9652   0.9814   1.0174   1.0407   1.0799   1.0919
     1.1056   1.1254   1.1439   1.1610   1.1832   1.2200   1.2348   1.2574
     1.2838   1.2968   1.3145   1.3211   1.3464   1.3634   1.3840   1.4021
     1.4180   1.4508   1.4633   1.4855   1.4978   1.5179   1.5372   1.5553
     1.5772   1.5939   1.6219   1.6337   1.6496   1.6632   1.6955   1.7315

          k = 0.3750 0.3704 0.3752 (310189 PWs)   bands (ev):

   -17.9582 -17.8927 -17.8900 -17.8587 -17.8465 -17.8349 -17.8233 -17.7948
   -15.7304 -15.7142 -15.6716 -15.6342 -15.6250 -15.6040 -15.5998 -15.5480
   -14.3386 -14.3296 -14.3016 -14.2981 -14.2920 -14.2917 -14.2866 -14.2797
   -14.2707 -14.2599 -14.2554 -14.2549 -14.2534 -14.2510 -14.2501 -14.2500
   -14.2430 -14.2419 -14.2411 -14.2405 -14.2381 -14.2337 -14.2262 -14.2249
   -14.2230 -14.2205 -14.2201 -14.2184 -14.2180 -14.2168 -14.2162 -14.2119
   -14.2014 -14.2011 -14.1992 -14.1925 -14.1916 -14.1896 -14.1858 -14.1793
    -9.7704  -9.7423  -9.7192  -9.7031  -9.6873  -9.6596  -9.6282  -9.5925
    -9.4649  -9.4424  -9.4050  -9.3863  -9.3747  -9.3377  -9.3211  -9.2790
    -9.2243  -9.1650  -9.1460  -9.1212  -9.1021  -9.0884  -9.0713  -9.0565
    -9.0272  -9.0049  -8.9866  -8.9749  -8.9577  -8.9453  -8.9226  -8.8953
    -7.8013  -7.7293  -7.6901  -7.6687  -7.6577  -7.6437  -7.6335  -7.6201
    -7.0970  -7.0835  -7.0735  -7.0284  -7.0230  -7.0015  -6.9907  -6.9230
    -5.5423  -5.4668  -5.4022  -5.3789  -5.3651  -5.3564  -5.3338  -5.3171
    -5.3132  -5.2982  -5.2854  -5.2659  -5.1953  -5.1528  -5.1383  -4.9927
    -3.8857  -3.8518  -3.8379  -3.8143  -3.7929  -3.7898  -3.7669  -3.7496
    -3.3302  -3.3061  -3.2995  -3.2589  -3.2550  -3.2460  -3.2330  -3.1928
    -0.5647  -0.5045  -0.4635  -0.4169  -0.3989  -0.3438  -0.3231  -0.3034
    -0.2854  -0.2308  -0.2227  -0.1735  -0.1358  -0.1287  -0.0971  -0.0779
    -0.0632  -0.0444  -0.0172   0.0009   0.0577   0.1676   0.1858   0.2031
     0.2518   0.2766   0.2890   0.3147   0.3464   0.3892   0.4324   0.4916
     0.6353   0.7020   0.7224   0.7625   0.7904   0.8041   0.8279   0.8472
     0.8799   0.8878   0.9052   0.9264   0.9629   0.9818   1.0138   1.0229
     1.0608   1.0666   1.0966   1.1069   1.1203   1.1522   1.1720   1.1886
     1.2807   1.3028   1.3321   1.3476   1.3622   1.3743   1.3930   1.4002
     1.4174   1.4350   1.4527   1.4712   1.4857   1.5089   1.5306   1.5477
     1.5528   1.5737   1.5958   1.6079   1.6270   1.6392   1.6764   1.6897

          k =-0.1250-0.1235 0.1251 (310212 PWs)   bands (ev):

   -17.9583 -17.8927 -17.8898 -17.8587 -17.8465 -17.8349 -17.8233 -17.7948
   -15.7342 -15.7104 -15.6717 -15.6343 -15.6251 -15.6041 -15.5996 -15.5479
   -14.3390 -14.3299 -14.3016 -14.2981 -14.2920 -14.2915 -14.2872 -14.2804
   -14.2713 -14.2600 -14.2553 -14.2543 -14.2534 -14.2513 -14.2510 -14.2494
   -14.2420 -14.2416 -14.2412 -14.2409 -14.2381 -14.2344 -14.2262 -14.2250
   -14.2230 -14.2204 -14.2201 -14.2180 -14.2168 -14.2165 -14.2160 -14.2119
   -14.2014 -14.2011 -14.1992 -14.1925 -14.1916 -14.1896 -14.1858 -14.1793
    -9.8150  -9.7729  -9.7156  -9.6939  -9.6560  -9.6384  -9.5974  -9.5833
    -9.4925  -9.4650  -9.4078  -9.3713  -9.3363  -9.3224  -9.2802  -9.2401
    -9.2273  -9.1847  -9.1683  -9.1534  -9.1251  -9.1071  -9.0841  -9.0577
    -9.0478  -9.0209  -8.9997  -8.9850  -8.9617  -8.9473  -8.8920  -8.8529
    -7.8050  -7.7254  -7.6907  -7.6714  -7.6585  -7.6395  -7.6323  -7.6184
    -7.0983  -7.0837  -7.0739  -7.0291  -7.0230  -7.0004  -6.9911  -6.9230
    -5.8785  -5.4921  -5.4707  -5.4264  -5.4063  -5.3558  -5.3478  -5.3329
    -5.3219  -5.3002  -5.2901  -5.2671  -5.0400  -4.9908  -4.9804  -4.5897
    -3.8876  -3.8536  -3.8386  -3.8137  -3.7953  -3.7869  -3.7649  -3.7493
    -3.3309  -3.3075  -3.2999  -3.2588  -3.2570  -3.2467  -3.2292  -3.1907
    -0.9007  -0.8556  -0.8054  -0.7519  -0.7348  -0.7087  -0.6835  -0.6526
    -0.6148  -0.5947  -0.5340  -0.4945  -0.1827  -0.1539  -0.1203  -0.1156
    -0.0777  -0.0509  -0.0188   0.0190   0.3552   0.4210   0.4521   0.4769
     0.4981   0.5079   0.5252   0.5681   0.5818   0.6301   0.6669   0.7510
     0.7652   0.8134   0.8246   0.8639   0.8778   0.9235   0.9445   0.9696
     0.9889   1.0107   1.0269   1.0439   1.0544   1.0727   1.0967   1.1101
     1.1298   1.1365   1.1651   1.1759   1.1945   1.2094   1.2329   1.2469
     1.2642   1.2796   1.2994   1.3089   1.3240   1.3380   1.3669   1.3950
     1.4247   1.4408   1.4517   1.4842   1.5032   1.5264   1.5772   1.6002
     1.6608   1.6937   1.7143   1.7498   1.7993   1.8374   1.8682   2.1092

          k =-0.1250 0.1235-0.1251 (310212 PWs)   bands (ev):

   -17.9583 -17.8927 -17.8898 -17.8587 -17.8465 -17.8349 -17.8233 -17.7948
   -15.7342 -15.7104 -15.6717 -15.6343 -15.6251 -15.6041 -15.5996 -15.5479
   -14.3390 -14.3299 -14.3016 -14.2981 -14.2920 -14.2915 -14.2872 -14.2804
   -14.2713 -14.2600 -14.2553 -14.2543 -14.2534 -14.2513 -14.2510 -14.2494
   -14.2420 -14.2416 -14.2412 -14.2409 -14.2381 -14.2344 -14.2262 -14.2250
   -14.2230 -14.2204 -14.2201 -14.2180 -14.2168 -14.2165 -14.2160 -14.2119
   -14.2014 -14.2011 -14.1992 -14.1925 -14.1916 -14.1896 -14.1858 -14.1793
    -9.8160  -9.7723  -9.7169  -9.6927  -9.6558  -9.6374  -9.5962  -9.5838
    -9.4833  -9.4716  -9.4134  -9.3765  -9.3422  -9.3079  -9.2792  -9.2434
    -9.2227  -9.1932  -9.1684  -9.1539  -9.1168  -9.1052  -9.0880  -9.0586
    -9.0484  -9.0203  -9.0040  -8.9772  -8.9651  -8.9471  -8.8918  -8.8534
    -7.8049  -7.7254  -7.6908  -7.6712  -7.6584  -7.6398  -7.6323  -7.6186
    -7.0981  -7.0838  -7.0739  -7.0291  -7.0230  -7.0004  -6.9911  -6.9230
    -5.8784  -5.4948  -5.4687  -5.4297  -5.4065  -5.3516  -5.3479  -5.3336
    -5.3218  -5.3001  -5.2877  -5.2673  -5.0410  -4.9901  -4.9813  -4.5904
    -3.8875  -3.8535  -3.8391  -3.8133  -3.7953  -3.7870  -3.7649  -3.7492
    -3.3308  -3.3074  -3.2996  -3.2594  -3.2570  -3.2466  -3.2291  -3.1907
    -0.8812  -0.8533  -0.8025  -0.7545  -0.7335  -0.7127  -0.6884  -0.6646
    -0.6197  -0.5964  -0.5354  -0.4970  -0.1854  -0.1628  -0.1198  -0.1141
    -0.0767  -0.0469  -0.0160   0.0172   0.3542   0.4265   0.4482   0.4787
     0.4965   0.5142   0.5351   0.5672   0.5844   0.6321   0.6804   0.7300
     0.7545   0.8100   0.8441   0.8704   0.9109   0.9290   0.9506   0.9585
     0.9897   0.9941   1.0136   1.0377   1.0504   1.0676   1.0887   1.1093
     1.1253   1.1391   1.1622   1.1853   1.1983   1.2130   1.2352   1.2579
     1.2599   1.2748   1.2880   1.3104   1.3181   1.3323   1.3612   1.4059
     1.4214   1.4431   1.4650   1.4798   1.5087   1.5257   1.5783   1.5994
     1.6679   1.7023   1.7121   1.7649   1.7827   1.8292   1.8644   2.0925

          k = 0.1250-0.1235-0.1251 (310212 PWs)   bands (ev):

   -17.9583 -17.8927 -17.8898 -17.8587 -17.8465 -17.8349 -17.8233 -17.7948
   -15.7342 -15.7104 -15.6717 -15.6343 -15.6251 -15.6041 -15.5996 -15.5479
   -14.3390 -14.3299 -14.3016 -14.2981 -14.2920 -14.2915 -14.2872 -14.2804
   -14.2713 -14.2600 -14.2553 -14.2543 -14.2534 -14.2513 -14.2510 -14.2494
   -14.2420 -14.2416 -14.2412 -14.2409 -14.2381 -14.2344 -14.2262 -14.2250
   -14.2230 -14.2204 -14.2201 -14.2180 -14.2168 -14.2165 -14.2160 -14.2119
   -14.2014 -14.2011 -14.1992 -14.1925 -14.1916 -14.1896 -14.1858 -14.1793
    -9.8154  -9.7716  -9.7179  -9.6927  -9.6560  -9.6375  -9.5969  -9.5858
    -9.4922  -9.4599  -9.4096  -9.3766  -9.3350  -9.3190  -9.2758  -9.2478
    -9.2237  -9.1918  -9.1733  -9.1468  -9.1173  -9.1098  -9.0841  -9.0633
    -9.0466  -9.0177  -9.0025  -8.9789  -8.9644  -8.9479  -8.8917  -8.8534
    -7.8050  -7.7255  -7.6908  -7.6711  -7.6588  -7.6393  -7.6325  -7.6183
    -7.0982  -7.0837  -7.0739  -7.0291  -7.0230  -7.0004  -6.9912  -6.9230
    -5.8787  -5.4947  -5.4703  -5.4283  -5.4030  -5.3527  -5.3476  -5.3345
    -5.3193  -5.3016  -5.2894  -5.2692  -5.0395  -4.9915  -4.9802  -4.5904
    -3.8875  -3.8532  -3.8395  -3.8131  -3.7952  -3.7870  -3.7650  -3.7492
    -3.3309  -3.3078  -3.2996  -3.2591  -3.2571  -3.2464  -3.2291  -3.1906
    -0.8975  -0.8320  -0.8070  -0.7590  -0.7320  -0.7155  -0.6862  -0.6593
    -0.6208  -0.5962  -0.5352  -0.4960  -0.1883  -0.1610  -0.1245  -0.1106
    -0.0777  -0.0458  -0.0162   0.0173   0.3543   0.4265   0.4472   0.4800
     0.4975   0.5126   0.5315   0.5617   0.5829   0.6449   0.6867   0.7418
     0.7667   0.7926   0.8380   0.8637   0.8965   0.9279   0.9505   0.9600
     0.9787   1.0047   1.0097   1.0276   1.0578   1.0752   1.0991   1.1084
     1.1213   1.1482   1.1702   1.1784   1.1980   1.2119   1.2242   1.2553
     1.2650   1.2818   1.2919   1.3045   1.3225   1.3396   1.3583   1.3995
     1.4280   1.4494   1.4552   1.4780   1.5054   1.5301   1.5751   1.5978
     1.6706   1.6965   1.7125   1.7646   1.7822   1.8338   1.8611   2.0956

          k =-0.1250-0.1235 0.3752 (310167 PWs)   bands (ev):

   -17.9583 -17.8927 -17.8898 -17.8587 -17.8465 -17.8349 -17.8233 -17.7948
   -15.7342 -15.7104 -15.6716 -15.6343 -15.6250 -15.6042 -15.5997 -15.5479
   -14.3389 -14.3299 -14.3016 -14.2981 -14.2920 -14.2914 -14.2869 -14.2801
   -14.2711 -14.2598 -14.2553 -14.2548 -14.2534 -14.2510 -14.2509 -14.2497
   -14.2420 -14.2416 -14.2411 -14.2411 -14.2381 -14.2345 -14.2262 -14.2252
   -14.2230 -14.2205 -14.2201 -14.2180 -14.2168 -14.2165 -14.2160 -14.2119
   -14.2014 -14.2011 -14.1992 -14.1925 -14.1916 -14.1896 -14.1858 -14.1793
    -9.7961  -9.7655  -9.7182  -9.6894  -9.6618  -9.6545  -9.6232  -9.5893
    -9.4913  -9.4386  -9.4085  -9.3751  -9.3437  -9.3193  -9.2958  -9.2593
    -9.2333  -9.1981  -9.1533  -9.1240  -9.1084  -9.0877  -9.0738  -9.0541
    -9.0420  -9.0216  -9.0038  -8.9913  -8.9766  -8.9502  -8.8997  -8.8554
    -7.8051  -7.7255  -7.6898  -7.6718  -7.6579  -7.6392  -7.6340  -7.6184
    -7.0983  -7.0836  -7.0740  -7.0293  -7.0229  -7.0004  -6.9912  -6.9229
    -5.7637  -5.5882  -5.4878  -5.3651  -5.3551  -5.3462  -5.3299  -5.3267
    -5.3135  -5.2926  -5.2811  -5.2533  -5.1546  -5.1177  -4.8970  -4.7202
    -3.8866  -3.8528  -3.8373  -3.8163  -3.7957  -3.7852  -3.7665  -3.7496
    -3.3308  -3.3071  -3.2998  -3.2591  -3.2568  -3.2469  -3.2294  -3.1906
    -0.8606  -0.8061  -0.7430  -0.7144  -0.6714  -0.6430  -0.6140  -0.5579
    -0.4370  -0.3793  -0.3075  -0.2226  -0.1567  -0.1361  -0.1250  -0.1012
    -0.0665  -0.0483  -0.0271   0.0222   0.1460   0.2335   0.2884   0.3775
     0.4062   0.4396   0.4510   0.4994   0.5195   0.5589   0.5725   0.5960
     0.6332   0.6929   0.8218   0.8363   0.8745   0.9120   0.9305   0.9495
     0.9744   0.9877   1.0031   1.0224   1.0619   1.0736   1.0997   1.1045
     1.1399   1.1466   1.1734   1.1882   1.2135   1.2215   1.2448   1.2636
     1.2731   1.2844   1.2977   1.3104   1.3386   1.3537   1.3702   1.3873
     1.4130   1.4358   1.4398   1.4787   1.5022   1.5293   1.5422   1.5554
     1.6298   1.6519   1.6675   1.6832   1.7455   1.7657   1.8335   1.9673

          k =-0.1250 0.1235-0.3752 (310167 PWs)   bands (ev):

   -17.9583 -17.8927 -17.8898 -17.8587 -17.8465 -17.8349 -17.8233 -17.7948
   -15.7342 -15.7104 -15.6716 -15.6343 -15.6250 -15.6042 -15.5997 -15.5479
   -14.3389 -14.3299 -14.3016 -14.2981 -14.2920 -14.2914 -14.2869 -14.2801
   -14.2711 -14.2598 -14.2553 -14.2548 -14.2534 -14.2510 -14.2509 -14.2497
   -14.2420 -14.2416 -14.2411 -14.2411 -14.2381 -14.2345 -14.2262 -14.2252
   -14.2230 -14.2205 -14.2201 -14.2180 -14.2168 -14.2165 -14.2160 -14.2119
   -14.2014 -14.2011 -14.1992 -14.1925 -14.1916 -14.1896 -14.1858 -14.1793
    -9.7970  -9.7651  -9.7176  -9.6908  -9.6634  -9.6519  -9.6215  -9.5905
    -9.4792  -9.4513  -9.4113  -9.3730  -9.3467  -9.3172  -9.2905  -9.2648
    -9.2312  -9.2024  -9.1505  -9.1241  -9.0995  -9.0886  -9.0796  -9.0548
    -9.0426  -9.0247  -8.9981  -8.9916  -8.9757  -8.9526  -8.8992  -8.8557
    -7.8049  -7.7255  -7.6899  -7.6717  -7.6575  -7.6398  -7.6339  -7.6188
    -7.0982  -7.0837  -7.0739  -7.0293  -7.0229  -7.0003  -6.9912  -6.9230
    -5.7633  -5.5895  -5.4873  -5.3721  -5.3540  -5.3433  -5.3335  -5.3227
    -5.3116  -5.2916  -5.2757  -5.2565  -5.1580  -5.1151  -4.8980  -4.7208
    -3.8864  -3.8527  -3.8375  -3.8160  -3.7960  -3.7852  -3.7665  -3.7495
    -3.3307  -3.3071  -3.2994  -3.2598  -3.2567  -3.2467  -3.2294  -3.1907
    -0.8393  -0.7917  -0.7573  -0.7207  -0.6742  -0.6373  -0.6303  -0.5600
    -0.4420  -0.3861  -0.3057  -0.2246  -0.1630  -0.1428  -0.1219  -0.1014
    -0.0606  -0.0395  -0.0317   0.0184   0.1501   0.2398   0.2905   0.3774
     0.4127   0.4331   0.4506   0.5056   0.5222   0.5560   0.5711   0.5924
     0.6497   0.6892   0.8207   0.8447   0.8852   0.9083   0.9327   0.9424
     0.9771   0.9935   1.0209   1.0292   1.0492   1.0585   1.0849   1.0994
     1.1233   1.1415   1.1792   1.1893   1.2194   1.2363   1.2413   1.2525
     1.2755   1.2812   1.3009   1.3106   1.3327   1.3470   1.3607   1.3929
     1.4162   1.4350   1.4494   1.4754   1.5100   1.5258   1.5493   1.5633
     1.6371   1.6625   1.6667   1.6913   1.7452   1.7702   1.8113   1.9413

          k = 0.1250-0.1235-0.3752 (310167 PWs)   bands (ev):

   -17.9583 -17.8927 -17.8898 -17.8587 -17.8465 -17.8349 -17.8233 -17.7948
   -15.7342 -15.7104 -15.6716 -15.6343 -15.6250 -15.6042 -15.5997 -15.5479
   -14.3389 -14.3299 -14.3016 -14.2981 -14.2920 -14.2914 -14.2869 -14.2801
   -14.2711 -14.2598 -14.2553 -14.2548 -14.2534 -14.2511 -14.2509 -14.2497
   -14.2420 -14.2416 -14.2411 -14.2411 -14.2381 -14.2345 -14.2262 -14.2252
   -14.2230 -14.2205 -14.2201 -14.2180 -14.2168 -14.2165 -14.2160 -14.2119
   -14.2014 -14.2011 -14.1992 -14.1925 -14.1916 -14.1896 -14.1858 -14.1793
    -9.7960  -9.7643  -9.7198  -9.6899  -9.6630  -9.6525  -9.6232  -9.5914
    -9.4882  -9.4337  -9.4088  -9.3769  -9.3474  -9.3256  -9.2816  -9.2621
    -9.2428  -9.1988  -9.1514  -9.1159  -9.1102  -9.0888  -9.0787  -9.0545
    -9.0418  -9.0197  -9.0004  -8.9913  -8.9763  -8.9528  -8.8993  -8.8557
    -7.8050  -7.7255  -7.6899  -7.6716  -7.6579  -7.6393  -7.6341  -7.6185
    -7.0982  -7.0837  -7.0740  -7.0293  -7.0229  -7.0003  -6.9912  -6.9230
    -5.7640  -5.5888  -5.4876  -5.3680  -5.3518  -5.3438  -5.3319  -5.3230
    -5.3114  -5.2939  -5.2795  -5.2620  -5.1525  -5.1159  -4.8980  -4.7208
    -3.8865  -3.8525  -3.8379  -3.8159  -3.7959  -3.7853  -3.7666  -3.7495
    -3.3308  -3.3074  -3.2995  -3.2596  -3.2568  -3.2465  -3.2294  -3.1905
    -0.8412  -0.7925  -0.7543  -0.7229  -0.6774  -0.6418  -0.6271  -0.5607
    -0.4298  -0.3856  -0.3029  -0.2243  -0.1665  -0.1413  -0.1261  -0.1002
    -0.0644  -0.0446  -0.0262   0.0192   0.1510   0.2253   0.2979   0.3788
     0.4125   0.4415   0.4493   0.5064   0.5246   0.5545   0.5717   0.5962
     0.6422   0.6912   0.8120   0.8374   0.8875   0.9150   0.9292   0.9471
     0.9733   0.9948   1.0083   1.0207   1.0451   1.0777   1.0976   1.1128
     1.1204   1.1438   1.1694   1.1903   1.2184   1.2267   1.2372   1.2418
     1.2766   1.2874   1.3106   1.3235   1.3325   1.3531   1.3578   1.3913
     1.4101   1.4350   1.4499   1.4788   1.5083   1.5219   1.5448   1.5648
     1.6313   1.6582   1.6686   1.6924   1.7487   1.7695   1.8118   1.9432

          k =-0.1250-0.3704 0.1251 (310130 PWs)   bands (ev):

   -17.9583 -17.8927 -17.8898 -17.8587 -17.8465 -17.8349 -17.8233 -17.7948
   -15.7342 -15.7104 -15.6717 -15.6343 -15.6251 -15.6041 -15.5996 -15.5479
   -14.3390 -14.3298 -14.3016 -14.2981 -14.2920 -14.2915 -14.2869 -14.2800
   -14.2712 -14.2602 -14.2553 -14.2545 -14.2534 -14.2513 -14.2510 -14.2498
   -14.2420 -14.2417 -14.2412 -14.2406 -14.2381 -14.2342 -14.2262 -14.2245
   -14.2230 -14.2201 -14.2200 -14.2180 -14.2176 -14.2168 -14.2161 -14.2119
   -14.2014 -14.2011 -14.1992 -14.1925 -14.1916 -14.1896 -14.1858 -14.1793
    -9.8084  -9.7791  -9.7119  -9.6951  -9.6563  -9.6384  -9.5960  -9.5850
    -9.4820  -9.4473  -9.4044  -9.3829  -9.3599  -9.3229  -9.3049  -9.2789
    -9.2231  -9.1806  -9.1651  -9.1438  -9.1092  -9.0871  -9.0678  -9.0490
    -9.0396  -9.0256  -9.0031  -8.9769  -8.9676  -8.9444  -8.8972  -8.8706
    -7.8041  -7.7247  -7.6912  -7.6680  -7.6591  -7.6422  -7.6313  -7.6195
    -7.0980  -7.0837  -7.0739  -7.0286  -7.0232  -7.0010  -6.9912  -6.9231
    -5.7640  -5.5630  -5.4884  -5.3639  -5.3599  -5.3500  -5.3415  -5.3226
    -5.3104  -5.2991  -5.2820  -5.2551  -5.1494  -5.1154  -4.9066  -4.7322
    -3.8860  -3.8533  -3.8393  -3.8128  -3.7957  -3.7874  -3.7651  -3.7495
    -3.3310  -3.3061  -3.3006  -3.2576  -3.2566  -3.2489  -3.2293  -3.1909
    -0.8943  -0.8369  -0.7353  -0.7071  -0.6820  -0.6340  -0.5769  -0.5357
    -0.3863  -0.3534  -0.2873  -0.2055  -0.1569  -0.1300  -0.1195  -0.1039
    -0.0815  -0.0606  -0.0178   0.0128   0.1988   0.2490   0.3277   0.3622
     0.3934   0.4708   0.4965   0.5135   0.5154   0.5310   0.5582   0.6225
     0.6559   0.6908   0.7435   0.7782   0.8256   0.8612   0.9057   0.9399
     0.9549   1.0030   1.0175   1.0439   1.0517   1.0639   1.0816   1.1088
     1.1262   1.1456   1.1811   1.1891   1.2132   1.2263   1.2449   1.2526
     1.2865   1.2982   1.3075   1.3166   1.3269   1.3494   1.3834   1.4100
     1.4202   1.4286   1.4560   1.4678   1.5002   1.5167   1.5223   1.5559
     1.5945   1.6102   1.6443   1.6924   1.7150   1.7290   1.8565   1.9298

          k =-0.1250 0.3704-0.1251 (310130 PWs)   bands (ev):

   -17.9583 -17.8927 -17.8898 -17.8587 -17.8465 -17.8349 -17.8233 -17.7948
   -15.7342 -15.7104 -15.6717 -15.6343 -15.6251 -15.6041 -15.5996 -15.5479
   -14.3390 -14.3298 -14.3016 -14.2981 -14.2920 -14.2915 -14.2869 -14.2800
   -14.2712 -14.2602 -14.2553 -14.2545 -14.2534 -14.2513 -14.2510 -14.2498
   -14.2420 -14.2417 -14.2412 -14.2406 -14.2381 -14.2342 -14.2262 -14.2245
   -14.2230 -14.2201 -14.2200 -14.2180 -14.2176 -14.2168 -14.2161 -14.2119
   -14.2014 -14.2011 -14.1992 -14.1925 -14.1916 -14.1896 -14.1858 -14.1793
    -9.8092  -9.7789  -9.7146  -9.6926  -9.6548  -9.6379  -9.5950  -9.5872
    -9.4748  -9.4466  -9.4122  -9.3856  -9.3618  -9.3198  -9.3077  -9.2795
    -9.2195  -9.1772  -9.1651  -9.1451  -9.1131  -9.0786  -9.0697  -9.0544
    -9.0398  -9.0236  -9.0040  -8.9777  -8.9646  -8.9453  -8.8968  -8.8714
    -7.8040  -7.7246  -7.6913  -7.6677  -7.6591  -7.6424  -7.6314  -7.6197
    -7.0979  -7.0838  -7.0738  -7.0286  -7.0232  -7.0009  -6.9912  -6.9231
    -5.7638  -5.5637  -5.4886  -5.3698  -5.3602  -5.3479  -5.3397  -5.3238
    -5.3109  -5.2964  -5.2787  -5.2525  -5.1505  -5.1176  -4.9059  -4.7334
    -3.8859  -3.8530  -3.8398  -3.8127  -3.7954  -3.7878  -3.7651  -3.7494
    -3.3309  -3.3061  -3.3003  -3.2577  -3.2573  -3.2486  -3.2292  -3.1910
    -0.8785  -0.8471  -0.7217  -0.7044  -0.6918  -0.6335  -0.5726  -0.5345
    -0.3934  -0.3655  -0.2980  -0.2150  -0.1591  -0.1433  -0.1251  -0.1026
    -0.0804  -0.0593  -0.0176   0.0147   0.2116   0.2689   0.3379   0.3652
     0.4111   0.4724   0.4905   0.5038   0.5237   0.5319   0.5556   0.6233
     0.6430   0.7009   0.7389   0.7764   0.8326   0.8544   0.9141   0.9329
     0.9661   0.9920   1.0019   1.0273   1.0558   1.0790   1.0933   1.1068
     1.1304   1.1402   1.1824   1.1950   1.2112   1.2308   1.2395   1.2571
     1.2706   1.2857   1.3003   1.3267   1.3377   1.3503   1.3842   1.4105
     1.4206   1.4299   1.4444   1.4747   1.4992   1.5142   1.5279   1.5698
     1.5794   1.6147   1.6401   1.6961   1.7120   1.7316   1.8628   1.9109

          k = 0.1250-0.3704-0.1251 (310130 PWs)   bands (ev):

   -17.9583 -17.8927 -17.8898 -17.8587 -17.8465 -17.8349 -17.8233 -17.7948
   -15.7342 -15.7104 -15.6717 -15.6343 -15.6251 -15.6041 -15.5996 -15.5479
   -14.3390 -14.3298 -14.3016 -14.2981 -14.2920 -14.2915 -14.2869 -14.2800
   -14.2712 -14.2602 -14.2553 -14.2545 -14.2534 -14.2513 -14.2510 -14.2498
   -14.2420 -14.2417 -14.2412 -14.2406 -14.2381 -14.2342 -14.2262 -14.2245
   -14.2230 -14.2201 -14.2200 -14.2180 -14.2176 -14.2168 -14.2161 -14.2119
   -14.2014 -14.2011 -14.1992 -14.1925 -14.1916 -14.1896 -14.1858 -14.1793
    -9.8091  -9.7776  -9.7147  -9.6934  -9.6565  -9.6374  -9.5953  -9.5875
    -9.4808  -9.4392  -9.4117  -9.3900  -9.3539  -9.3158  -9.3084  -9.2797
    -9.2268  -9.1892  -9.1563  -9.1428  -9.1093  -9.0856  -9.0660  -9.0581
    -9.0380  -9.0223  -9.0024  -8.9772  -8.9655  -8.9455  -8.8971  -8.8713
    -7.8041  -7.7247  -7.6913  -7.6676  -7.6594  -7.6421  -7.6315  -7.6194
    -7.0979  -7.0837  -7.0739  -7.0286  -7.0232  -7.0009  -6.9912  -6.9231
    -5.7643  -5.5635  -5.4889  -5.3730  -5.3566  -5.3454  -5.3374  -5.3209
    -5.3061  -5.3015  -5.2817  -5.2602  -5.1490  -5.1155  -4.9064  -4.7332
    -3.8859  -3.8530  -3.8399  -3.8126  -3.7956  -3.7876  -3.7652  -3.7494
    -3.3311  -3.3065  -3.3003  -3.2577  -3.2571  -3.2484  -3.2292  -3.1908
    -0.8930  -0.8308  -0.7298  -0.7113  -0.6777  -0.6317  -0.5768  -0.5307
    -0.3941  -0.3614  -0.2964  -0.2144  -0.1721  -0.1444  -0.1315  -0.0962
    -0.0841  -0.0546  -0.0155   0.0158   0.2144   0.2688   0.3374   0.3634
     0.4120   0.4800   0.4870   0.5055   0.5188   0.5361   0.5610   0.6240
     0.6571   0.6889   0.7289   0.7703   0.8405   0.8458   0.9094   0.9354
     0.9608   0.9931   1.0228   1.0293   1.0440   1.0640   1.0982   1.1112
     1.1347   1.1480   1.1682   1.1898   1.2031   1.2300   1.2414   1.2608
     1.2747   1.2984   1.3124   1.3221   1.3401   1.3466   1.3700   1.4130
     1.4210   1.4368   1.4480   1.4823   1.4922   1.5077   1.5395   1.5563
     1.5860   1.6081   1.6455   1.6972   1.7076   1.7281   1.8610   1.9156

          k =-0.1250-0.3704 0.3752 (310209 PWs)   bands (ev):

   -17.9583 -17.8927 -17.8898 -17.8587 -17.8465 -17.8349 -17.8233 -17.7948
   -15.7342 -15.7104 -15.6716 -15.6343 -15.6250 -15.6042 -15.5997 -15.5479
   -14.3389 -14.3297 -14.3016 -14.2981 -14.2920 -14.2914 -14.2866 -14.2797
   -14.2710 -14.2600 -14.2554 -14.2550 -14.2534 -14.2511 -14.2509 -14.2501
   -14.2420 -14.2418 -14.2411 -14.2408 -14.2381 -14.2344 -14.2262 -14.2248
   -14.2230 -14.2201 -14.2201 -14.2180 -14.2176 -14.2168 -14.2161 -14.2119
   -14.2014 -14.2011 -14.1992 -14.1925 -14.1916 -14.1896 -14.1858 -14.1793
    -9.7920  -9.7680  -9.7153  -9.6890  -9.6619  -9.6560  -9.6225  -9.5896
    -9.4788  -9.4335  -9.4044  -9.3844  -9.3491  -9.3322  -9.3143  -9.2810
    -9.2498  -9.1693  -9.1561  -9.1187  -9.0957  -9.0809  -9.0669  -9.0523
    -9.0381  -9.0208  -9.0009  -8.9866  -8.9771  -8.9380  -8.9072  -8.8736
    -7.8042  -7.7247  -7.6902  -7.6687  -7.6579  -7.6422  -7.6332  -7.6194
    -7.0981  -7.0837  -7.0739  -7.0287  -7.0231  -7.0010  -6.9912  -6.9230
    -5.6529  -5.5016  -5.4794  -5.4472  -5.3558  -5.3520  -5.3367  -5.3297
    -5.3021  -5.2918  -5.2657  -5.2467  -5.2133  -5.0536  -5.0149  -4.8604
    -3.8851  -3.8525  -3.8377  -3.8146  -3.7971  -3.7856  -3.7666  -3.7494
    -3.3310  -3.3058  -3.3007  -3.2575  -3.2569  -3.2491  -3.2295  -3.1910
    -0.8487  -0.7269  -0.6620  -0.5921  -0.4617  -0.4229  -0.3657  -0.3362
    -0.3233  -0.2865  -0.2467  -0.2328  -0.1378  -0.1223  -0.1152  -0.0972
    -0.0621  -0.0466  -0.0257   0.0191   0.1178   0.1798   0.2294   0.2545
     0.2910   0.3329   0.3592   0.4040   0.4398   0.5170   0.5313   0.5672
     0.6120   0.6566   0.7204   0.7312   0.7734   0.8222   0.8409   0.8599
     0.8823   0.9091   0.9624   0.9886   1.0092   1.0383   1.0659   1.0930
     1.1309   1.1505   1.1609   1.1917   1.2064   1.2258   1.2530   1.2715
     1.2979   1.3064   1.3207   1.3460   1.3512   1.3588   1.3821   1.3947
     1.4133   1.4282   1.4527   1.4722   1.4902   1.5011   1.5160   1.5518
     1.5712   1.5952   1.6214   1.6505   1.6683   1.6909   1.7385   1.8122

          k =-0.1250 0.3704-0.3752 (310209 PWs)   bands (ev):

   -17.9583 -17.8927 -17.8898 -17.8587 -17.8465 -17.8349 -17.8233 -17.7948
   -15.7342 -15.7104 -15.6716 -15.6343 -15.6250 -15.6042 -15.5997 -15.5479
   -14.3389 -14.3297 -14.3016 -14.2981 -14.2920 -14.2914 -14.2866 -14.2797
   -14.2710 -14.2600 -14.2554 -14.2550 -14.2534 -14.2511 -14.2509 -14.2501
   -14.2420 -14.2418 -14.2411 -14.2408 -14.2381 -14.2344 -14.2262 -14.2248
   -14.2230 -14.2201 -14.2201 -14.2180 -14.2176 -14.2168 -14.2161 -14.2119
   -14.2014 -14.2011 -14.1992 -14.1925 -14.1916 -14.1896 -14.1858 -14.1793
    -9.7921  -9.7687  -9.7158  -9.6895  -9.6605  -9.6551  -9.6218  -9.5917
    -9.4659  -9.4390  -9.4125  -9.3758  -9.3571  -9.3390  -9.3117  -9.2807
    -9.2482  -9.1655  -9.1538  -9.1202  -9.0974  -9.0790  -9.0650  -9.0565
    -9.0396  -9.0163  -9.0034  -8.9888  -8.9725  -8.9402  -8.9066  -8.8741
    -7.8040  -7.7246  -7.6903  -7.6686  -7.6575  -7.6426  -7.6332  -7.6197
    -7.0980  -7.0838  -7.0739  -7.0287  -7.0231  -7.0009  -6.9912  -6.9231
    -5.6524  -5.5059  -5.4763  -5.4478  -5.3564  -5.3504  -5.3374  -5.3303
    -5.3030  -5.2897  -5.2665  -5.2465  -5.2104  -5.0539  -5.0153  -4.8618
    -3.8850  -3.8523  -3.8379  -3.8143  -3.7973  -3.7857  -3.7666  -3.7494
    -3.3309  -3.3059  -3.3003  -3.2581  -3.2571  -3.2487  -3.2295  -3.1911
    -0.8408  -0.7176  -0.6604  -0.5853  -0.4708  -0.4261  -0.3783  -0.3410
    -0.3293  -0.2951  -0.2487  -0.2387  -0.1542  -0.1194  -0.1131  -0.0910
    -0.0581  -0.0511  -0.0277   0.0144   0.1211   0.1876   0.2456   0.2678
     0.3029   0.3356   0.3722   0.3927   0.4385   0.5074   0.5273   0.5623
     0.6219   0.6681   0.7217   0.7367   0.7794   0.7980   0.8449   0.8697
     0.8866   0.9061   0.9637   0.9886   1.0101   1.0227   1.0573   1.0910
     1.1143   1.1435   1.1841   1.1881   1.2176   1.2312   1.2527   1.2635
     1.2898   1.2960   1.3284   1.3410   1.3526   1.3657   1.3853   1.3945
     1.4168   1.4296   1.4549   1.4717   1.4845   1.5126   1.5195   1.5488
     1.5711   1.5895   1.6200   1.6566   1.6750   1.6955   1.7338   1.7887

          k = 0.1250-0.3704-0.3752 (310209 PWs)   bands (ev):

   -17.9583 -17.8927 -17.8898 -17.8587 -17.8465 -17.8349 -17.8233 -17.7948
   -15.7342 -15.7104 -15.6716 -15.6343 -15.6250 -15.6042 -15.5997 -15.5479
   -14.3389 -14.3297 -14.3016 -14.2981 -14.2920 -14.2914 -14.2866 -14.2797
   -14.2710 -14.2600 -14.2554 -14.2550 -14.2534 -14.2511 -14.2509 -14.2501
   -14.2420 -14.2418 -14.2411 -14.2408 -14.2381 -14.2344 -14.2262 -14.2248
   -14.2230 -14.2201 -14.2201 -14.2180 -14.2176 -14.2168 -14.2161 -14.2119
   -14.2014 -14.2011 -14.1992 -14.1925 -14.1916 -14.1896 -14.1858 -14.1793
    -9.7921  -9.7667  -9.7169  -9.6897  -9.6633  -9.6538  -9.6223  -9.5918
    -9.4741  -9.4269  -9.4103  -9.3851  -9.3535  -9.3329  -9.3034  -9.2864
    -9.2570  -9.1692  -9.1508  -9.1203  -9.0898  -9.0844  -9.0728  -9.0503
    -9.0383  -9.0186  -9.0012  -8.9847  -8.9767  -8.9393  -8.9074  -8.8738
    -7.8041  -7.7247  -7.6903  -7.6685  -7.6579  -7.6423  -7.6333  -7.6194
    -7.0980  -7.0837  -7.0739  -7.0287  -7.0231  -7.0009  -6.9912  -6.9231
    -5.6535  -5.5055  -5.4864  -5.4271  -5.3617  -5.3495  -5.3373  -5.3249
    -5.3146  -5.2928  -5.2763  -5.2361  -5.2073  -5.0517  -5.0180  -4.8613
    -3.8850  -3.8523  -3.8381  -3.8142  -3.7973  -3.7856  -3.7667  -3.7493
    -3.3310  -3.3063  -3.3003  -3.2579  -3.2571  -3.2485  -3.2295  -3.1909
    -0.8423  -0.7189  -0.6614  -0.5895  -0.4668  -0.4235  -0.3721  -0.3442
    -0.3036  -0.2904  -0.2628  -0.2402  -0.1623  -0.1346  -0.1160  -0.0908
    -0.0684  -0.0524  -0.0239   0.0172   0.1270   0.2028   0.2478   0.2853
     0.3090   0.3318   0.3518   0.3829   0.4407   0.5061   0.5326   0.5674
     0.6221   0.6636   0.7087   0.7436   0.7617   0.8118   0.8416   0.8547
     0.8920   0.9333   0.9430   0.9931   1.0119   1.0193   1.0681   1.1000
     1.1113   1.1444   1.1700   1.1901   1.2095   1.2222   1.2621   1.2693
     1.2910   1.3083   1.3178   1.3474   1.3558   1.3663   1.3868   1.3989
     1.4111   1.4211   1.4585   1.4727   1.4824   1.5099   1.5273   1.5537
     1.5695   1.5849   1.6215   1.6488   1.6693   1.6943   1.7352   1.7941

          k =-0.3750-0.1235 0.1251 (310180 PWs)   bands (ev):

   -17.9582 -17.8927 -17.8900 -17.8587 -17.8465 -17.8349 -17.8233 -17.7948
   -15.7304 -15.7142 -15.6716 -15.6342 -15.6251 -15.6040 -15.5997 -15.5480
   -14.3388 -14.3298 -14.3016 -14.2981 -14.2921 -14.2918 -14.2872 -14.2804
   -14.2711 -14.2599 -14.2553 -14.2542 -14.2534 -14.2510 -14.2503 -14.2494
   -14.2428 -14.2419 -14.2412 -14.2406 -14.2381 -14.2336 -14.2262 -14.2253
   -14.2230 -14.2207 -14.2201 -14.2180 -14.2169 -14.2168 -14.2162 -14.2119
   -14.2014 -14.2011 -14.1992 -14.1925 -14.1916 -14.1896 -14.1858 -14.1793
    -9.7878  -9.7487  -9.7311  -9.7090  -9.6831  -9.6367  -9.6004  -9.5902
    -9.5031  -9.4608  -9.3947  -9.3626  -9.3451  -9.3264  -9.2888  -9.2365
    -9.2223  -9.1889  -9.1664  -9.1580  -9.1272  -9.1107  -9.0893  -9.0537
    -9.0214  -9.0126  -8.9886  -8.9801  -8.9555  -8.9337  -8.9160  -8.8736
    -7.8022  -7.7303  -7.6907  -7.6711  -7.6589  -7.6402  -7.6327  -7.6185
    -7.0970  -7.0837  -7.0737  -7.0289  -7.0229  -7.0008  -6.9906  -6.9230
    -5.7602  -5.5802  -5.4605  -5.3778  -5.3645  -5.3495  -5.3347  -5.3198
    -5.3078  -5.2962  -5.2839  -5.2580  -5.1629  -5.1168  -4.8940  -4.7269
    -3.8882  -3.8523  -3.8391  -3.8135  -3.7938  -3.7884  -3.7656  -3.7496
    -3.3301  -3.3069  -3.2997  -3.2587  -3.2558  -3.2445  -3.2331  -3.1926
    -0.8589  -0.8066  -0.7636  -0.7427  -0.6967  -0.6548  -0.6365  -0.5844
    -0.4398  -0.3277  -0.2606  -0.2096  -0.1589  -0.1342  -0.1063  -0.0914
    -0.0650  -0.0359  -0.0209   0.0137   0.1258   0.2421   0.3347   0.3957
     0.4336   0.4488   0.4747   0.5118   0.5313   0.5578   0.5739   0.6178
     0.6376   0.7231   0.7813   0.8199   0.8483   0.8805   0.9109   0.9321
     0.9755   0.9873   1.0051   1.0202   1.0482   1.0685   1.0998   1.1171
     1.1325   1.1502   1.1674   1.1837   1.2085   1.2283   1.2382   1.2530
     1.2783   1.2851   1.3033   1.3219   1.3303   1.3606   1.3983   1.4128
     1.4298   1.4569   1.4674   1.4874   1.5016   1.5194   1.5478   1.5847
     1.6060   1.6245   1.6461   1.6592   1.7045   1.7322   1.8265   1.9145

          k =-0.3750 0.1235-0.1251 (310180 PWs)   bands (ev):

   -17.9582 -17.8927 -17.8900 -17.8587 -17.8465 -17.8349 -17.8233 -17.7948
   -15.7304 -15.7142 -15.6716 -15.6342 -15.6251 -15.6040 -15.5997 -15.5480
   -14.3388 -14.3298 -14.3016 -14.2981 -14.2921 -14.2918 -14.2872 -14.2804
   -14.2711 -14.2599 -14.2553 -14.2542 -14.2534 -14.2510 -14.2503 -14.2494
   -14.2428 -14.2419 -14.2412 -14.2406 -14.2381 -14.2336 -14.2262 -14.2253
   -14.2230 -14.2207 -14.2201 -14.2180 -14.2169 -14.2168 -14.2162 -14.2119
   -14.2014 -14.2011 -14.1992 -14.1925 -14.1916 -14.1896 -14.1858 -14.1793
    -9.7889  -9.7492  -9.7330  -9.7051  -9.6831  -9.6360  -9.5991  -9.5915
    -9.4987  -9.4620  -9.4018  -9.3700  -9.3489  -9.3162  -9.2811  -9.2342
    -9.2183  -9.2039  -9.1699  -9.1571  -9.1174  -9.1058  -9.0945  -9.0540
    -9.0292  -9.0093  -8.9888  -8.9749  -8.9572  -8.9351  -8.9138  -8.8750
    -7.8021  -7.7303  -7.6908  -7.6709  -7.6588  -7.6405  -7.6327  -7.6187
    -7.0969  -7.0838  -7.0736  -7.0289  -7.0229  -7.0007  -6.9906  -6.9231
    -5.7598  -5.5819  -5.4609  -5.3770  -5.3673  -5.3537  -5.3342  -5.3203
    -5.3041  -5.2970  -5.2727  -5.2582  -5.1666  -5.1189  -4.8933  -4.7279
    -3.8881  -3.8521  -3.8397  -3.8131  -3.7939  -3.7886  -3.7656  -3.7496
    -3.3300  -3.3068  -3.2994  -3.2585  -3.2566  -3.2444  -3.2329  -3.1927
    -0.8544  -0.7954  -0.7627  -0.7487  -0.6799  -0.6559  -0.6371  -0.5892
    -0.4625  -0.3380  -0.2707  -0.2024  -0.1667  -0.1430  -0.1168  -0.0913
    -0.0632  -0.0272  -0.0199   0.0094   0.1404   0.2635   0.3387   0.3950
     0.4389   0.4504   0.4763   0.5007   0.5365   0.5518   0.5769   0.6261
     0.6581   0.7135   0.7796   0.8175   0.8534   0.8784   0.9066   0.9267
     0.9686   0.9965   1.0082   1.0220   1.0469   1.0714   1.0782   1.1096
     1.1404   1.1611   1.1726   1.1907   1.1983   1.2184   1.2380   1.2536
     1.2641   1.2849   1.3055   1.3128   1.3437   1.3695   1.3858   1.4110
     1.4351   1.4422   1.4658   1.4871   1.5124   1.5354   1.5647   1.5805
     1.5938   1.6294   1.6546   1.6695   1.6880   1.7229   1.8397   1.8908

          k = 0.3750-0.1235-0.1251 (310180 PWs)   bands (ev):

   -17.9582 -17.8927 -17.8900 -17.8587 -17.8465 -17.8349 -17.8233 -17.7948
   -15.7304 -15.7142 -15.6716 -15.6342 -15.6251 -15.6040 -15.5997 -15.5480
   -14.3388 -14.3298 -14.3016 -14.2981 -14.2921 -14.2918 -14.2872 -14.2804
   -14.2711 -14.2599 -14.2553 -14.2542 -14.2534 -14.2510 -14.2503 -14.2494
   -14.2428 -14.2419 -14.2412 -14.2406 -14.2381 -14.2336 -14.2262 -14.2253
   -14.2230 -14.2207 -14.2201 -14.2180 -14.2169 -14.2168 -14.2162 -14.2119
   -14.2014 -14.2011 -14.1992 -14.1925 -14.1916 -14.1896 -14.1858 -14.1793
    -9.7877  -9.7470  -9.7343  -9.7071  -9.6844  -9.6361  -9.6000  -9.5919
    -9.4993  -9.4600  -9.3957  -9.3694  -9.3508  -9.3127  -9.2822  -9.2550
    -9.2090  -9.1981  -9.1705  -9.1551  -9.1189  -9.1055  -9.0956  -9.0595
    -9.0231  -9.0067  -8.9886  -8.9769  -8.9602  -8.9308  -8.9169  -8.8743
    -7.8022  -7.7303  -7.6908  -7.6709  -7.6590  -7.6403  -7.6328  -7.6185
    -7.0969  -7.0838  -7.0737  -7.0289  -7.0229  -7.0007  -6.9906  -6.9231
    -5.7602  -5.5815  -5.4612  -5.3776  -5.3679  -5.3486  -5.3383  -5.3149
    -5.3054  -5.2963  -5.2727  -5.2642  -5.1646  -5.1197  -4.8928  -4.7280
    -3.8881  -3.8520  -3.8399  -3.8130  -3.7942  -3.7883  -3.7657  -3.7496
    -3.3301  -3.3072  -3.2995  -3.2587  -3.2562  -3.2443  -3.2329  -3.1925
    -0.8601  -0.7918  -0.7629  -0.7489  -0.6779  -0.6585  -0.6408  -0.5812
    -0.4611  -0.3372  -0.2703  -0.2055  -0.1688  -0.1374  -0.1163  -0.0902
    -0.0684  -0.0299  -0.0168   0.0101   0.1379   0.2647   0.3378   0.3990
     0.4356   0.4543   0.4762   0.4994   0.5367   0.5530   0.5893   0.6059
     0.6483   0.7064   0.8016   0.8219   0.8612   0.8828   0.9078   0.9378
     0.9513   0.9893   1.0031   1.0100   1.0481   1.0531   1.1008   1.1241
     1.1328   1.1572   1.1716   1.1785   1.2006   1.2186   1.2390   1.2487
     1.2796   1.2877   1.3032   1.3318   1.3382   1.3596   1.3891   1.4023
     1.4388   1.4532   1.4661   1.4885   1.5124   1.5338   1.5535   1.5766
     1.5952   1.6321   1.6440   1.6691   1.6975   1.7220   1.8370   1.8953

          k =-0.3750-0.1235 0.3752 (310216 PWs)   bands (ev):

   -17.9582 -17.8927 -17.8900 -17.8587 -17.8465 -17.8349 -17.8233 -17.7948
   -15.7304 -15.7142 -15.6716 -15.6342 -15.6250 -15.6040 -15.5998 -15.5480
   -14.3386 -14.3298 -14.3016 -14.2981 -14.2921 -14.2917 -14.2869 -14.2801
   -14.2708 -14.2597 -14.2553 -14.2547 -14.2534 -14.2510 -14.2500 -14.2496
   -14.2428 -14.2419 -14.2411 -14.2408 -14.2381 -14.2337 -14.2263 -14.2255
   -14.2230 -14.2209 -14.2201 -14.2180 -14.2169 -14.2168 -14.2162 -14.2119
   -14.2014 -14.2011 -14.1992 -14.1925 -14.1916 -14.1896 -14.1858 -14.1793
    -9.7721  -9.7416  -9.7201  -9.7050  -9.6830  -9.6615  -9.6309  -9.5958
    -9.4881  -9.4333  -9.4133  -9.3962  -9.3362  -9.3149  -9.2997  -9.2660
    -9.2234  -9.1979  -9.1483  -9.1243  -9.1160  -9.0915  -9.0738  -9.0448
    -9.0357  -9.0158  -8.9960  -8.9775  -8.9633  -8.9354  -8.9225  -8.8787
    -7.8021  -7.7304  -7.6897  -7.6716  -7.6574  -7.6410  -7.6345  -7.6191
    -7.0970  -7.0837  -7.0736  -7.0290  -7.0228  -7.0008  -6.9907  -6.9230
    -5.6497  -5.4939  -5.4640  -5.4488  -5.3778  -5.3536  -5.3416  -5.3209
    -5.3187  -5.2933  -5.2808  -5.2561  -5.1859  -5.0420  -5.0101  -4.8574
    -3.8872  -3.8514  -3.8378  -3.8159  -3.7932  -3.7881  -3.7673  -3.7497
    -3.3300  -3.3067  -3.2995  -3.2583  -3.2558  -3.2444  -3.2332  -3.1924
    -0.7871  -0.7557  -0.6968  -0.6611  -0.5291  -0.4383  -0.4075  -0.3655
    -0.3130  -0.2731  -0.2299  -0.1736  -0.1606  -0.1296  -0.1025  -0.0853
    -0.0688  -0.0388  -0.0195   0.0245   0.0927   0.1723   0.2265   0.2697
     0.2895   0.3396   0.3748   0.4213   0.4612   0.4747   0.5110   0.5405
     0.6459   0.7004   0.7411   0.7709   0.8054   0.8324   0.8434   0.8808
     0.9272   0.9437   0.9727   0.9799   1.0117   1.0502   1.0628   1.0859
     1.1147   1.1397   1.1652   1.1854   1.2094   1.2266   1.2435   1.2631
     1.2888   1.3064   1.3225   1.3294   1.3468   1.3625   1.3844   1.3945
     1.4245   1.4352   1.4515   1.4679   1.4939   1.5089   1.5309   1.5520
     1.5647   1.6067   1.6166   1.6574   1.6800   1.7155   1.7404   1.7847

          k =-0.3750 0.1235-0.3752 (310216 PWs)   bands (ev):

   -17.9582 -17.8927 -17.8900 -17.8587 -17.8465 -17.8349 -17.8233 -17.7948
   -15.7304 -15.7142 -15.6716 -15.6342 -15.6250 -15.6040 -15.5998 -15.5480
   -14.3386 -14.3298 -14.3016 -14.2981 -14.2921 -14.2917 -14.2869 -14.2801
   -14.2708 -14.2597 -14.2553 -14.2547 -14.2534 -14.2510 -14.2500 -14.2496
   -14.2428 -14.2419 -14.2411 -14.2408 -14.2381 -14.2337 -14.2263 -14.2255
   -14.2230 -14.2209 -14.2201 -14.2180 -14.2169 -14.2168 -14.2162 -14.2119
   -14.2014 -14.2011 -14.1992 -14.1925 -14.1916 -14.1896 -14.1858 -14.1793
    -9.7728  -9.7434  -9.7196  -9.7029  -9.6844  -9.6606  -9.6291  -9.5970
    -9.4720  -9.4514  -9.4209  -9.3876  -9.3392  -9.3159  -9.2966  -9.2619
    -9.2241  -9.2033  -9.1494  -9.1235  -9.1047  -9.0911  -9.0807  -9.0472
    -9.0343  -9.0214  -8.9881  -8.9786  -8.9584  -8.9460  -8.9162  -8.8801
    -7.8019  -7.7304  -7.6898  -7.6715  -7.6569  -7.6416  -7.6345  -7.6194
    -7.0969  -7.0838  -7.0735  -7.0290  -7.0228  -7.0007  -6.9907  -6.9231
    -5.6485  -5.4957  -5.4693  -5.4491  -5.3749  -5.3578  -5.3354  -5.3247
    -5.3056  -5.2949  -5.2799  -5.2624  -5.1848  -5.0420  -5.0112  -4.8583
    -3.8871  -3.8514  -3.8380  -3.8156  -3.7937  -3.7879  -3.7673  -3.7497
    -3.3299  -3.3067  -3.2992  -3.2583  -3.2565  -3.2442  -3.2330  -3.1925
    -0.7764  -0.7494  -0.6914  -0.6622  -0.5155  -0.4650  -0.4114  -0.3616
    -0.3300  -0.2711  -0.2550  -0.1745  -0.1607  -0.1369  -0.1024  -0.0974
    -0.0553  -0.0410  -0.0203   0.0117   0.1121   0.2037   0.2354   0.2678
     0.3192   0.3245   0.3845   0.4234   0.4385   0.4725   0.5117   0.5426
     0.6523   0.7068   0.7414   0.7692   0.8132   0.8178   0.8479   0.8852
     0.9363   0.9477   0.9592   0.9914   1.0076   1.0384   1.0485   1.0948
     1.1125   1.1346   1.1508   1.1971   1.2077   1.2398   1.2451   1.2565
     1.2863   1.2917   1.3081   1.3221   1.3444   1.3609   1.3815   1.4041
[...]
    -7.7906  -7.7176  -7.7093  -7.6734  -7.6639  -7.6443  -7.6369  -7.6256
    -7.0959  -7.0753  -7.0514  -7.0312  -7.0102  -7.0008  -6.9918  -6.9257
    -5.5428  -5.4304  -5.4071  -5.3689  -5.3596  -5.3514  -5.3397  -5.3236
    -5.3055  -5.2947  -5.2788  -5.2500  -5.1964  -5.1527  -5.1404  -4.9965
    -3.8838  -3.8584  -3.8492  -3.8279  -3.7967  -3.7916  -3.7709  -3.7652
    -3.3235  -3.3081  -3.2995  -3.2607  -3.2573  -3.2468  -3.2302  -3.1992
    -0.5696  -0.5117  -0.4667  -0.3980  -0.3841  -0.3552  -0.3207  -0.2944
    -0.2736  -0.2314  -0.2108  -0.1585  -0.1515  -0.1091  -0.1024  -0.0893
    -0.0731  -0.0394  -0.0107   0.0275   0.0516   0.1378   0.1746   0.1910
     0.2436   0.2720   0.2925   0.3182   0.3635   0.3891   0.4469   0.4897
     0.6405   0.6774   0.7215   0.7434   0.7883   0.8075   0.8371   0.8509
     0.8649   0.8986   0.9227   0.9399   0.9613   0.9891   1.0003   1.0301
     1.0602   1.0777   1.0933   1.1020   1.1275   1.1533   1.1621   1.1820
     1.2786   1.2972   1.3420   1.3529   1.3625   1.3735   1.3834   1.3981
     1.4160   1.4290   1.4560   1.4610   1.4925   1.4963   1.5239   1.5383
     1.5502   1.5639   1.5953   1.6059   1.6263   1.6540   1.6661   1.6863

          k =-0.3753 0.3700-0.3752 (310189 PWs)   bands (ev):

   -17.9447 -17.9120 -17.8815 -17.8663 -17.8504 -17.8370 -17.8181 -17.8085
   -15.7103 -15.7006 -15.6754 -15.6359 -15.6204 -15.6013 -15.5968 -15.5523
   -14.3377 -14.3306 -14.3007 -14.2989 -14.2923 -14.2911 -14.2851 -14.2762
   -14.2724 -14.2695 -14.2592 -14.2583 -14.2574 -14.2484 -14.2463 -14.2460
   -14.2446 -14.2438 -14.2434 -14.2373 -14.2359 -14.2347 -14.2328 -14.2323
   -14.2287 -14.2279 -14.2271 -14.2228 -14.2197 -14.2163 -14.2149 -14.2104
   -14.1998 -14.1986 -14.1979 -14.1959 -14.1939 -14.1928 -14.1890 -14.1770
    -9.7577  -9.7487  -9.7168  -9.6955  -9.6706  -9.6509  -9.6184  -9.5906
    -9.4521  -9.4278  -9.4119  -9.3846  -9.3752  -9.3403  -9.3154  -9.2771
    -9.2253  -9.1630  -9.1399  -9.1140  -9.1017  -9.0864  -9.0707  -9.0565
    -9.0341  -9.0159  -8.9977  -8.9814  -8.9628  -8.9457  -8.9282  -8.8957
    -7.7904  -7.7174  -7.7095  -7.6732  -7.6636  -7.6449  -7.6368  -7.6259
    -7.0959  -7.0754  -7.0513  -7.0312  -7.0102  -7.0007  -6.9918  -6.9258
    -5.5403  -5.4391  -5.4020  -5.3784  -5.3654  -5.3494  -5.3301  -5.3242
    -5.3075  -5.2880  -5.2706  -5.2498  -5.2024  -5.1487  -5.1433  -4.9993
    -3.8837  -3.8576  -3.8500  -3.8278  -3.7968  -3.7917  -3.7707  -3.7653
    -3.3234  -3.3083  -3.2989  -3.2613  -3.2572  -3.2467  -3.2301  -3.1992
    -0.5245  -0.4895  -0.4397  -0.4316  -0.3820  -0.3525  -0.3339  -0.3066
    -0.2908  -0.2708  -0.2528  -0.1951  -0.1442  -0.1204  -0.1095  -0.0910
    -0.0595  -0.0415  -0.0266   0.0192   0.1245   0.1711   0.1789   0.2370
     0.2534   0.2812   0.3001   0.3218   0.3569   0.3928   0.4212   0.4507
     0.6649   0.6944   0.7183   0.7462   0.7795   0.8035   0.8154   0.8476
     0.8880   0.8950   0.9180   0.9460   0.9664   0.9821   0.9900   1.0203
     1.0674   1.0737   1.0923   1.1098   1.1250   1.1379   1.1597   1.1842
     1.2762   1.2983   1.3367   1.3520   1.3604   1.3743   1.3907   1.4048
     1.4147   1.4374   1.4542   1.4611   1.4853   1.4990   1.5349   1.5390
     1.5549   1.5791   1.5902   1.6004   1.6226   1.6454   1.6582   1.6831

          k = 0.3753-0.3700-0.3752 (310189 PWs)   bands (ev):

   -17.9447 -17.9120 -17.8815 -17.8663 -17.8504 -17.8370 -17.8181 -17.8085
   -15.7103 -15.7006 -15.6754 -15.6359 -15.6204 -15.6013 -15.5968 -15.5523
   -14.3377 -14.3306 -14.3007 -14.2989 -14.2923 -14.2911 -14.2851 -14.2762
   -14.2724 -14.2695 -14.2592 -14.2583 -14.2574 -14.2484 -14.2463 -14.2460
   -14.2446 -14.2438 -14.2434 -14.2373 -14.2359 -14.2347 -14.2328 -14.2323
   -14.2287 -14.2279 -14.2271 -14.2228 -14.2197 -14.2163 -14.2149 -14.2104
   -14.1998 -14.1986 -14.1979 -14.1959 -14.1939 -14.1928 -14.1890 -14.1770
    -9.7559  -9.7482  -9.7155  -9.6977  -9.6754  -9.6505  -9.6171  -9.5903
    -9.4534  -9.4266  -9.4030  -9.3979  -9.3734  -9.3244  -9.3157  -9.2873
    -9.2289  -9.1609  -9.1438  -9.1094  -9.1001  -9.0833  -9.0766  -9.0611
    -9.0292  -9.0149  -9.0000  -8.9768  -8.9637  -8.9433  -8.9347  -8.8936
    -7.7906  -7.7175  -7.7094  -7.6733  -7.6638  -7.6447  -7.6366  -7.6258
    -7.0959  -7.0753  -7.0514  -7.0313  -7.0102  -7.0007  -6.9919  -6.9258
    -5.5422  -5.4361  -5.4107  -5.3743  -5.3610  -5.3449  -5.3342  -5.3132
    -5.3026  -5.2947  -5.2748  -5.2636  -5.1924  -5.1537  -5.1421  -4.9982
    -3.8837  -3.8581  -3.8497  -3.8275  -3.7974  -3.7912  -3.7706  -3.7654
    -3.3236  -3.3085  -3.2992  -3.2610  -3.2573  -3.2466  -3.2301  -3.1991
    -0.5474  -0.4826  -0.4466  -0.4020  -0.3962  -0.3446  -0.3269  -0.3123
    -0.2938  -0.2641  -0.2161  -0.1986  -0.1656  -0.1391  -0.1143  -0.0869
    -0.0691  -0.0400  -0.0230   0.0278   0.1191   0.1530   0.1955   0.2215
     0.2663   0.2913   0.3081   0.3330   0.3613   0.3823   0.4018   0.4572
     0.6631   0.6936   0.7149   0.7427   0.7713   0.8077   0.8191   0.8662
     0.8751   0.8954   0.9160   0.9472   0.9620   0.9779   0.9972   1.0153
     1.0661   1.0759   1.0854   1.1173   1.1232   1.1473   1.1536   1.1933
     1.2766   1.2975   1.3317   1.3553   1.3686   1.3727   1.3870   1.4023
     1.4215   1.4308   1.4535   1.4692   1.4917   1.5021   1.5276   1.5416
     1.5509   1.5623   1.5896   1.6023   1.6220   1.6439   1.6641   1.6844

     highest occupied level (ev):     2.1088

!    total energy              =  -16707.47058716 Ry
     Harris-Foulkes estimate   =  -16707.47058716 Ry
     estimated scf accuracy    <          4.2E-09 Ry

     total all-electron energy =   -678114.530272 Ry

     The total energy is the sum of the following terms:

     one-electron contribution =    -948.51443083 Ry
     hartree contribution      =     673.80671059 Ry
     xc contribution           =    -795.80448456 Ry
     ewald contribution        =   -1218.32853648 Ry
     DFT-D3 Dispersion         =      -0.64531935 Ry
     one-center paw contrib.   =  -14417.98452653 Ry

     convergence has been achieved in   8 iterations

     Forces acting on atoms (cartesian axes, Ry/au):

     atom    1 type  1   force =    -0.00022678   -0.00003157    0.00058205
     atom    2 type  1   force =    -0.00021302    0.00041572    0.00045312
     atom    3 type  1   force =    -0.00031925   -0.00034904   -0.00004848
     atom    4 type  1   force =     0.00006991    0.00041712   -0.00020415
     atom    5 type  1   force =    -0.00005270   -0.00048241    0.00010206
     atom    6 type  1   force =    -0.00004589   -0.00013233   -0.00005696
     atom    7 type  1   force =    -0.00008264    0.00056138   -0.00049915
     atom    8 type  1   force =     0.00048665   -0.00025858   -0.00000155
     atom    9 type  2   force =     0.00006199   -0.00018530   -0.00051677
     atom   10 type  2   force =    -0.00016475    0.00007314    0.00017526
     atom   11 type  2   force =     0.00012865   -0.00007628   -0.00058867
     atom   12 type  2   force =     0.00007589   -0.00071435    0.00049812
     atom   13 type  2   force =    -0.00005742    0.00042315   -0.00022287
     atom   14 type  2   force =    -0.00005219    0.00017723    0.00010375
     atom   15 type  2   force =     0.00019480   -0.00033295   -0.00020602
     atom   16 type  2   force =    -0.00008809    0.00039260    0.00006146
     atom   17 type  2   force =     0.00019958    0.00019252   -0.00006761
     atom   18 type  2   force =    -0.00008684    0.00019540   -0.00019868
     atom   19 type  2   force =    -0.00017159   -0.00007313    0.00047647
     atom   20 type  2   force =    -0.00026173    0.00005198   -0.00007789
     atom   21 type  2   force =    -0.00070549   -0.00012601    0.00012528
     atom   22 type  2   force =     0.00086486   -0.00020029   -0.00013946
     atom   23 type  2   force =     0.00006644    0.00013901   -0.00014683
     atom   24 type  2   force =     0.00018080   -0.00001090   -0.00077440
     atom   25 type  2   force =    -0.00024033   -0.00009132    0.00015680
     atom   26 type  2   force =     0.00014146    0.00150588   -0.00017724
     atom   27 type  2   force =    -0.00005484   -0.00004425    0.00019215
     atom   28 type  2   force =    -0.00003508    0.00042277   -0.00009537
     atom   29 type  2   force =    -0.00007278   -0.00033119   -0.00010034
     atom   30 type  2   force =     0.00000261   -0.00016864   -0.00001454
     atom   31 type  2   force =    -0.00023262   -0.00004911    0.00023008
     atom   32 type  2   force =    -0.00003717    0.00013474   -0.00007558
     atom   33 type  3   force =     0.00121212    0.00122113   -0.00034866
     atom   34 type  3   force =     0.00155217    0.00033444    0.00034736
     atom   35 type  3   force =    -0.00024498   -0.00018570   -0.00103967
     atom   36 type  3   force =    -0.00274822   -0.00227207   -0.00288590
     atom   37 type  3   force =     0.00013170   -0.00169099    0.00106272
     atom   38 type  3   force =     0.00218007   -0.00110116    0.00404170
     atom   39 type  3   force =     0.00202124    0.00100573    0.00089549
     atom   40 type  3   force =    -0.00162141   -0.00341989   -0.00099219
     atom   41 type  4   force =    -0.00150594    0.00004781   -0.00078332
     atom   42 type  4   force =     0.00012588    0.00107697    0.00146197
     atom   43 type  4   force =    -0.00028903    0.00026101    0.00049045
     atom   44 type  4   force =    -0.00005432    0.00056001    0.00181685
     atom   45 type  4   force =     0.00098827    0.00113509   -0.00011400
     atom   46 type  4   force =    -0.00118462    0.00001411   -0.00079047
     atom   47 type  4   force =    -0.00012116   -0.00097772   -0.00035600
     atom   48 type  4   force =     0.00116664    0.00197881   -0.00083862
     atom   49 type  4   force =    -0.00016993    0.00022517    0.00046584
     atom   50 type  4   force =     0.00139121   -0.00139378    0.00047531
     atom   51 type  4   force =    -0.00030261    0.00066536    0.00142384
     atom   52 type  4   force =     0.00047277    0.00123708    0.00111003
     atom   53 type  4   force =     0.00020800   -0.00030792   -0.00010140
     atom   54 type  4   force =    -0.00179513    0.00167127   -0.00102813
     atom   55 type  4   force =    -0.00101223    0.00031390   -0.00017778
     atom   56 type  4   force =     0.00092718    0.00176314   -0.00024811
     atom   57 type  5   force =    -0.00070136   -0.00075572   -0.00053051
     atom   58 type  5   force =    -0.00167314   -0.00017783   -0.00114126
     atom   59 type  5   force =     0.00040265   -0.00220670   -0.00142736
     atom   60 type  5   force =     0.00101676   -0.00019427    0.00111622
     atom   61 type  5   force =    -0.00049822   -0.00201202   -0.00052513
     atom   62 type  5   force =     0.00002909   -0.00106091   -0.00165303
     atom   63 type  5   force =     0.00060269   -0.00017120   -0.00139599
     atom   64 type  5   force =     0.00040329    0.00059041    0.00077021
     atom   65 type  5   force =    -0.00099999    0.00139287   -0.00011639
     atom   66 type  5   force =    -0.00140391    0.00282352    0.00118498
     atom   67 type  5   force =    -0.00017150    0.00148726    0.00115333
     atom   68 type  5   force =     0.00050706   -0.00042379   -0.00028452
     atom   69 type  5   force =     0.00111332    0.00078336    0.00015788
     atom   70 type  5   force =     0.00050704   -0.00101542    0.00015254
     atom   71 type  5   force =     0.00002865   -0.00075539    0.00108672
     atom   72 type  5   force =    -0.00113374    0.00076810   -0.00001951
     atom   73 type  5   force =    -0.00132532   -0.00186728   -0.00251835
     atom   74 type  5   force =    -0.00124235   -0.00156562   -0.00263734
     atom   75 type  5   force =    -0.00090934   -0.00081629   -0.00059315
     atom   76 type  5   force =    -0.00027820    0.00095106   -0.00017383
     atom   77 type  5   force =     0.00117003    0.00028458   -0.00018267
     atom   78 type  5   force =    -0.00017910    0.00040300    0.00069649
     atom   79 type  5   force =     0.00031458   -0.00042524   -0.00068849
     atom   80 type  5   force =    -0.00133821   -0.00048822    0.00188340
     atom   81 type  5   force =     0.00117411    0.00095323    0.00206025
     atom   82 type  5   force =     0.00057627   -0.00111094   -0.00056637
     atom   83 type  5   force =     0.00054006    0.00265103    0.00196867
     atom   84 type  5   force =     0.00009257    0.00061403   -0.00106641
     atom   85 type  5   force =    -0.00169112   -0.00090666   -0.00019532
     atom   86 type  5   force =    -0.00012400    0.00147369   -0.00016510
     atom   87 type  5   force =    -0.00111194    0.00030376    0.00142618
     atom   88 type  5   force =     0.00026271   -0.00042110    0.00005110
     atom   89 type  5   force =     0.00246787   -0.00115869    0.00143895
     atom   90 type  5   force =     0.00091022    0.00005016    0.00086718
     atom   91 type  5   force =     0.00116774   -0.00180521   -0.00139870
     atom   92 type  5   force =     0.00063321   -0.00055315    0.00023945
     atom   93 type  5   force =    -0.00165944    0.00191294    0.00006261
     atom   94 type  5   force =     0.00075737   -0.00100785   -0.00083442
     atom   95 type  5   force =    -0.00032245    0.00071736   -0.00046626
     atom   96 type  5   force =     0.00148594   -0.00086764   -0.00056738

     Total force =     0.016345     Total SCF correction =     0.000102


     Computing stress (Cartesian axis) and pressure

          total   stress  (Ry/bohr**3)                   (kbar)     P=   -0.03
   0.00000325   0.00000122  -0.00000482          0.48      0.18     -0.71
   0.00000122  -0.00000342  -0.00000071          0.18     -0.50     -0.10
  -0.00000482  -0.00000071  -0.00000043         -0.71     -0.10     -0.06


     number of scf cycles    =  14
     number of bfgs steps    =  13

     enthalpy old            =  -16707.4703853211 Ry
     enthalpy new            =  -16707.4705871573 Ry

     CASE: enthalpy_new < enthalpy_old

     new trust radius        =       0.1059724969 bohr
     new conv_thr            =       0.0000000202 Ry

     new unit-cell volume =  13974.70545 a.u.^3 (  2070.83767 Ang^3 )
     density =      4.06534 g/cm^3

CELL_PARAMETERS (angstrom)
  12.680253425   0.000000000   0.000000000
   0.000000000  12.869734206   0.000000000
   0.000000000   0.000000000  12.689617900

ATOMIC_POSITIONS (crystal)
Pb      -0.012441092  -0.023871364   0.007914009    0   0   0
Pb       0.486127180  -0.018666928   0.002261476    0   0   0
Pb      -0.014256292   0.481819570   0.009965562    0   0   0
Pb       0.023197996  -0.018371430   0.512061181    0   0   0
Pb       0.487182601   0.482649918  -0.003781880    0   0   0
Pb       0.020749614   0.477979513   0.506147789    0   0   0
Pb       0.525694008  -0.017784955   0.503012555    0   0   0
Pb       0.520311617   0.485398979   0.500179968    0   0   0
I        0.236802729  -0.009311300  -0.041293640    0   0   0
I        0.737084509  -0.004452818   0.043273878    0   0   0
I        0.235457186   0.487906753   0.059047384    0   0   0
I        0.271773942  -0.030474984   0.526432591    0   0   0
I        0.736237747   0.489876203  -0.052827831    0   0   0
I        0.272098928   0.473836031   0.460636116    0   0   0
I        0.771852654  -0.017431164   0.480090933    0   0   0
I        0.772534567   0.461717125   0.539769392    0   0   0
I       -0.029047600   0.233140193   0.008014837    0   0   0
I        0.470520124   0.232261105   0.008575002    0   0   0
I       -0.030928449   0.732599426   0.002456495    0   0   0
I        0.042656606   0.229807834   0.503633040    0   0   0
I        0.469948485   0.732663072  -0.000920343    0   0   0
I        0.025039501   0.728727015   0.511745118    0   0   0
I        0.532381895   0.231116806   0.503928954    0   0   0
I        0.541835931   0.731364839   0.504319627    0   0   0
I        0.035546498  -0.032932408   0.258307605    0   0   0
I        0.469570489  -0.021394020   0.253977610    0   0   0
I       -0.051032907   0.483811935   0.258039371    0   0   0
I       -0.041398965  -0.018546449   0.758604983    0   0   0
I        0.552027250   0.482960086   0.247070295    0   0   0
I        0.050714830   0.478055017   0.758344638    0   0   0
I        0.533051657  -0.024176564   0.755337833    0   0   0
I        0.456543875   0.469120332   0.748223225    0   0   0
C        0.235788137   0.251829814   0.250363784
C        0.763359013   0.254467754   0.276534336
C        0.246215525   0.731804840   0.298214239
C        0.258137770   0.251481814   0.733448116
C        0.749625228   0.790292854   0.252178033
C        0.254895339   0.769817354   0.747883083
C        0.733404527   0.253428644   0.756300186
C        0.759507854   0.752302208   0.735564989
N        0.204691989   0.195721211   0.169821310
N        0.693271958   0.237147048   0.202282755
N        0.165543059   0.678846213   0.261806159
N        0.187055136   0.232892626   0.806446949
N        0.665794672   0.740564972   0.217711909
N        0.180455034   0.728245222   0.806274288
N        0.703287177   0.201984852   0.840453594
N        0.688195627   0.744495995   0.810152303
N        0.315420833   0.228582478   0.311999425
N        0.846269818   0.196133471   0.294556887
N        0.343005888   0.723174700   0.262217488
N        0.338611855   0.190744968   0.712363623
N        0.837227121   0.746165354   0.284578044
N        0.326842013   0.716710660   0.696520191
N        0.813194429   0.227529415   0.695652555
N        0.836570493   0.685778450   0.721291253
H        0.193345258   0.323773805   0.267255274
H        0.752445926   0.322458068   0.327030581
H        0.232355163   0.786994242   0.362648687
H        0.248664034   0.321804333   0.686112587
H        0.746287148   0.875092119   0.254556712
H        0.257785880   0.854520497   0.742840562
H        0.689376551   0.323580509   0.735852623
H        0.753837963   0.817923193   0.681061138
H        0.240394111   0.127915253   0.148083971
H        0.698438231   0.174871591   0.151932789
H        0.173429958   0.623790103   0.203457691
H        0.190427833   0.168870579   0.854375746
H        0.658481643   0.661092470   0.216810633
H        0.167389850   0.649771936   0.809690932
H        0.740122616   0.135977671   0.865614568
H        0.688810239   0.684524527   0.863357947
H        0.141675275   0.219895392   0.125629644
H        0.632134699   0.288287343   0.194745943
H        0.094783747   0.685957262   0.298990031
H        0.126572896   0.284199369   0.816773556
H        0.602353747   0.781848334   0.191588318
H        0.128023884   0.773820692   0.845881919
H        0.640002686   0.226678235   0.884016127
H        0.629648419   0.798874526   0.813620784
H        0.359999687   0.163050638   0.301511633
H        0.863109840   0.130936739   0.252137450
H        0.362249429   0.675803974   0.200326828
H        0.353235902   0.123704580   0.752775164
H        0.850917739   0.667617604   0.281923681
H        0.335017374   0.637587750   0.702777230
H        0.858688220   0.162742831   0.708352614
H        0.845993269   0.621811853   0.767901801
H        0.332629360   0.277445792   0.372989433
H        0.897103881   0.214422563   0.354470035
H        0.399424980   0.771853929   0.291403110
H        0.390883893   0.210642919   0.654029100
H        0.898444405   0.791981655   0.308613103
H        0.381245678   0.754285325   0.650916987
H        0.829985327   0.273071122   0.631907309
H        0.889311947   0.697453766   0.661397201



     Writing output data file FAPbI83_vcrelax.save/
     NEW-OLD atomic charge density approx. for the potential
     extrapolated charge  432.00832, renormalised to  432.00000

     total cpu time spent up to now is   294672.9 secs

     Self-consistent Calculation

     iteration #  1     ecut=   120.00 Ry     beta= 0.70
     Davidson diagonalization with overlap
