
     Program PWSCF v.6.4 starts on  3Aug2020 at 16:12:18 

     This program is part of the open-source Quantum ESPRESSO suite
     for quantum simulation of materials; please cite
         "P. Giannozzi et al., J. Phys.:Condens. Matter 21 395502 (2009);
         "P. Giannozzi et al., J. Phys.:Condens. Matter 29 465901 (2017);
          URL http://www.quantum-espresso.org", 
     in publications or presentations arising from this work. More details at
     http://www.quantum-espresso.org/quote

     Parallel version (MPI), running on    32 processors

     MPI processes distributed on     1 nodes
     R & G space division:  proc/nbgrp/npool/nimage =      32
     Waiting for input...
     Reading input from standard input

     Current dimensions of program PWSCF are:
     Max number of different atomic species (ntypx) = 10
     Max number of k-points (npk) =  40000
     Max angular momentum in pseudopotentials (lmaxx) =  3
               file Pb.pbe-dn-kjpaw_psl.1.0.0.UPF: wavefunction(s)  6S 6P 5D renormalized
               file I.pbe-n-kjpaw_psl.1.0.0.UPF: wavefunction(s)  5S renormalized
               file C.pbe-n-kjpaw_psl.1.0.0.UPF: wavefunction(s)  2S 2P renormalized
               file N.pbe-n-kjpaw_psl.1.0.0.UPF: wavefunction(s)  2S renormalized
               file H.pbe-kjpaw_psl.1.0.0.UPF: wavefunction(s)  1S renormalized

     --------------------------------------------
     Parameters for DFT-D3 Dispersion Correction:
     --------------------------------------------
       Reference C6 values for interpolation: 

         atom   Coordination number   C6
         H          0.912             6.05
         H          0.000            15.18
         C          0.000            98.23
         C          0.987            86.49
         C          1.998            58.72
         C          2.999            51.56
         C          3.984            36.41
         N          0.000            50.54
         N          0.994            44.25
         N          2.014            39.35
         N          2.990            31.16
         I          0.000           703.93
         I          0.997           717.00
         Pb         0.000          1477.63
         Pb         0.938          1266.00
         Pb         1.936          1088.91
         Pb         2.908          1048.37
         Pb         3.910           910.57

       Values used:

         atom   Coordination number  R0_AB[au]  C6      C8
         Pb         4.785            4.041    910.57 144158.45
         Pb         4.844            4.041    910.57 144158.33
         Pb         4.712            4.041    910.57 144158.72
         Pb         4.821            4.041    910.57 144158.37
         Pb         4.693            4.041    910.58 144158.82
         Pb         4.769            4.041    910.57 144158.50
         Pb         4.853            4.041    910.57 144158.31
         Pb         4.734            4.041    910.57 144158.62
         I          1.942            3.532    717.00  65855.99
         I          1.973            3.532    717.00  65856.00
         I          1.833            3.532    717.00  65855.98
         I          1.944            3.532    717.00  65855.99
         I          1.870            3.532    717.00  65855.98
         I          1.911            3.532    717.00  65855.99
         I          1.994            3.532    717.00  65856.00
         I          1.949            3.532    717.00  65855.99
         I          1.882            3.532    717.00  65855.99
         I          1.921            3.532    717.00  65855.99
         I          1.947            3.532    717.00  65855.99
         I          1.977            3.532    717.00  65856.00
         I          1.914            3.532    717.00  65855.99
         I          1.966            3.532    717.00  65856.00
         I          1.940            3.532    717.00  65855.99
         I          1.924            3.532    717.00  65855.99
         I          1.897            3.532    717.00  65855.99
         I          1.962            3.532    717.00  65856.00
         I          1.933            3.532    717.00  65855.99
         I          1.960            3.532    717.00  65856.00
         I          1.865            3.532    717.00  65855.98
         I          1.881            3.532    717.00  65855.99
         I          1.995            3.532    717.00  65856.00
         I          1.932            3.532    717.00  65855.99
         C          3.067            2.750     51.06   1476.77
         C          3.071            2.750     51.04   1476.20
         C          3.069            2.750     51.05   1476.47
         C          3.073            2.750     51.03   1476.00
         C          3.079            2.750     51.00   1475.05
         C          3.070            2.750     51.05   1476.39
         C          3.069            2.750     51.05   1476.55
         C          3.068            2.750     51.06   1476.69
         N          3.104            2.478     31.23    689.02
         N          3.099            2.478     31.24    689.07
         N          3.114            2.478     31.23    688.90
         N          3.102            2.478     31.23    689.03
         N          3.099            2.478     31.23    689.07
         N          3.100            2.478     31.23    689.06
         N          3.106            2.478     31.23    688.99
         N          3.106            2.478     31.23    688.99
         N          3.099            2.478     31.24    689.07
         N          3.106            2.478     31.23    689.00
         N          3.102            2.478     31.23    689.04
         N          3.106            2.478     31.23    688.99
         N          3.103            2.478     31.23    689.03
         N          3.100            2.478     31.23    689.06
         N          3.101            2.478     31.23    689.05
         N          3.108            2.478     31.23    688.97
         H          1.016            2.062      6.17     74.55
         H          1.019            2.062      6.17     74.53
         H          1.018            2.062      6.17     74.53
         H          1.017            2.062      6.17     74.54
         H          1.024            2.062      6.16     74.47
         H          1.022            2.062      6.16     74.50
         H          1.017            2.062      6.17     74.54
         H          1.015            2.062      6.17     74.56
         H          1.027            2.062      6.16     74.45
         H          1.053            2.062      6.14     74.23
         H          1.058            2.062      6.14     74.19
         H          1.053            2.062      6.14     74.23
         H          1.055            2.062      6.14     74.22
         H          1.050            2.062      6.14     74.25
         H          1.034            2.062      6.15     74.38
         H          1.046            2.062      6.14     74.28
         H          1.075            2.062      6.13     74.07
         H          1.044            2.062      6.15     74.30
         H          1.042            2.062      6.15     74.31
         H          1.052            2.062      6.14     74.24
         H          1.030            2.062      6.16     74.42
         H          1.033            2.062      6.15     74.39
         H          1.061            2.062      6.14     74.17
         H          1.061            2.062      6.14     74.17
         H          1.043            2.062      6.15     74.31
         H          1.025            2.062      6.16     74.47
         H          1.026            2.062      6.16     74.45
         H          1.028            2.062      6.16     74.43
         H          1.057            2.062      6.14     74.20
         H          1.052            2.062      6.14     74.24
         H          1.053            2.062      6.14     74.22
         H          1.025            2.062      6.16     74.46
         H          1.039            2.062      6.15     74.35
         H          1.072            2.062      6.13     74.09
         H          1.040            2.062      6.15     74.33
         H          1.072            2.062      6.13     74.09
         H          1.044            2.062      6.15     74.30
         H          1.043            2.062      6.15     74.30
         H          1.045            2.062      6.15     74.29
         H          1.087            2.062      6.12     74.00

         Molecular C6 ( Ry / a.u.^6 ) =   1270620.31


     Subspace diagonalization in iterative solution of the eigenvalue problem:
     a serial algorithm will be used


     Parallelization info
     --------------------
     sticks:   dense  smooth     PW     G-vecs:    dense   smooth      PW
     Min         695     695    179                77535    77535   10145
     Max         696     696    180                77538    77538   10148
     Sum       22251   22251   5743              2481141  2481141  324683



     bravais-lattice index     =            0
     lattice parameter (alat)  =      23.9881  a.u.
     unit-cell volume          =   13970.8070 (a.u.)^3
     number of atoms/cell      =           96
     number of atomic types    =            5
     number of electrons       =       432.00
     number of Kohn-Sham states=          216
     kinetic-energy cutoff     =     120.0000  Ry
     charge density cutoff     =     480.0000  Ry
     convergence threshold     =      1.0E-07
     mixing beta               =       0.7000
     number of iterations used =            8  plain     mixing
     Exchange-correlation      = SLA PW PBX PBC ( 1  4  3  4 0 0)
     nstep                     =          200


     celldm(1)=  23.988098  celldm(2)=   0.000000  celldm(3)=   0.000000
     celldm(4)=   0.000000  celldm(5)=   0.000000  celldm(6)=   0.000000

     crystal axes: (cart. coord. in units of alat)
               a(1) = (   1.000000   0.000000   0.000000 )  
               a(2) = (   0.000000   1.012628   0.000000 )  
               a(3) = (   0.000000   0.000000   0.999503 )  

     reciprocal axes: (cart. coord. in units 2 pi/alat)
               b(1) = (  1.000000  0.000000  0.000000 )  
               b(2) = (  0.000000  0.987530  0.000000 )  
               b(3) = (  0.000000  0.000000  1.000497 )  


     PseudoPot. # 1 for Pb read from file:
     ../../../Pseudopotential/Pb.pbe-dn-kjpaw_psl.1.0.0.UPF
     MD5 check sum: 684fc8fbce61a260853528575e4d9ab7
     Pseudo is Projector augmented-wave + core cor, Zval = 14.0
     Generated using "atomic" code by A. Dal Corso v.6.3
     Shape of augmentation charge: PSQ
     Using radial grid of 1281 points,  6 beta functions with: 
                l(1) =   0
                l(2) =   0
                l(3) =   1
                l(4) =   1
                l(5) =   2
                l(6) =   2
     Q(r) pseudized with 0 coefficients 


     PseudoPot. # 2 for I  read from file:
     ../../../Pseudopotential/I.pbe-n-kjpaw_psl.1.0.0.UPF
     MD5 check sum: cd3d296c3308a581e1559a0c8a554cb5
     Pseudo is Projector augmented-wave + core cor, Zval =  7.0
     Generated using "atomic" code by A. Dal Corso v.6.3
     Shape of augmentation charge: PSQ
     Using radial grid of 1247 points,  6 beta functions with: 
                l(1) =   0
                l(2) =   0
                l(3) =   1
                l(4) =   1
                l(5) =   2
                l(6) =   2
     Q(r) pseudized with 0 coefficients 


     PseudoPot. # 3 for C  read from file:
     ../../../Pseudopotential/C.pbe-n-kjpaw_psl.1.0.0.UPF
     MD5 check sum: 5f16ad9a65e90284d1d834d4ab3b0f7d
     Pseudo is Projector augmented-wave + core cor, Zval =  4.0
     Generated using "atomic" code by A. Dal Corso v.6.3
     Shape of augmentation charge: PSQ
     Using radial grid of 1073 points,  4 beta functions with: 
                l(1) =   0
                l(2) =   0
                l(3) =   1
                l(4) =   1
     Q(r) pseudized with 0 coefficients 


     PseudoPot. # 4 for N  read from file:
     ../../../Pseudopotential/N.pbe-n-kjpaw_psl.1.0.0.UPF
     MD5 check sum: 14c48229446f9f2d411169a3abcbc3fa
     Pseudo is Projector augmented-wave + core cor, Zval =  5.0
     Generated using "atomic" code by A. Dal Corso v.6.3
     Shape of augmentation charge: PSQ
     Using radial grid of 1085 points,  4 beta functions with: 
                l(1) =   0
                l(2) =   0
                l(3) =   1
                l(4) =   1
     Q(r) pseudized with 0 coefficients 


     PseudoPot. # 5 for H  read from file:
     ../../../Pseudopotential/H.pbe-kjpaw_psl.1.0.0.UPF
     MD5 check sum: d81a744832360e4a8af0b0b5b123bc2a
     Pseudo is Projector augmented-wave, Zval =  1.0
     Generated using "atomic" code by A. Dal Corso v.6.3MaX
     Shape of augmentation charge: PSQ
     Using radial grid of  929 points,  2 beta functions with: 
                l(1) =   0
                l(2) =   0
     Q(r) pseudized with 0 coefficients 


     atomic species   valence    mass     pseudopotential
        Pb            14.00   207.97600     Pb( 1.00)
        I              7.00   126.90400     I ( 1.00)
        C              4.00    12.00000     C ( 1.00)
        N              5.00    14.00300     N ( 1.00)
        H              1.00     1.00700     H ( 1.00)

     No symmetry found



   Cartesian axes

     site n.     atom                  positions (alat units)
         1           Pb  tau(   1) = (  -0.0124411  -0.0241728   0.0079101  )
         2           Pb  tau(   2) = (   0.4861272  -0.0189026   0.0022604  )
         3           Pb  tau(   3) = (  -0.0142563   0.4879038   0.0099606  )
         4           Pb  tau(   4) = (   0.0231980  -0.0186034   0.5118068  )
         5           Pb  tau(   5) = (   0.4871826   0.4887447  -0.0037800  )
         6           Pb  tau(   6) = (   0.0207496   0.4840153   0.5058964  )
         7           Pb  tau(   7) = (   0.5256940  -0.0180095   0.5027627  )
         8           Pb  tau(   8) = (   0.5203116   0.4915285   0.4999315  )
         9           I   tau(   9) = (   0.2368027  -0.0094289  -0.0412731  )
        10           I   tau(  10) = (   0.7370845  -0.0045090   0.0432524  )
        11           I   tau(  11) = (   0.2354572   0.4940679   0.0590181  )
        12           I   tau(  12) = (   0.2717739  -0.0308598   0.5261711  )
        13           I   tau(  13) = (   0.7362377   0.4960622  -0.0528016  )
        14           I   tau(  14) = (   0.2720989   0.4798195   0.4604073  )
        15           I   tau(  15) = (   0.7718527  -0.0176513   0.4798525  )
        16           I   tau(  16) = (   0.7725346   0.4675476   0.5395013  )
        17           I   tau(  17) = (  -0.0290476   0.2360842   0.0080109  )
        18           I   tau(  18) = (   0.4705201   0.2351940   0.0085707  )
        19           I   tau(  19) = (  -0.0309284   0.7418505   0.0024553  )
        20           I   tau(  20) = (   0.0426566   0.2327098   0.5033829  )
        21           I   tau(  21) = (   0.4699485   0.7419149  -0.0009199  )
        22           I   tau(  22) = (   0.0250395   0.7379292   0.5114909  )
        23           I   tau(  23) = (   0.5323819   0.2340353   0.5036787  )
        24           I   tau(  24) = (   0.5418359   0.7406003   0.5040691  )
        25           I   tau(  25) = (   0.0355465  -0.0333483   0.2581793  )
        26           I   tau(  26) = (   0.4695705  -0.0216642   0.2538515  )
        27           I   tau(  27) = (  -0.0510329   0.4899214   0.2579112  )
        28           I   tau(  28) = (  -0.0413990  -0.0187806   0.7582282  )
        29           I   tau(  29) = (   0.5520272   0.4890588   0.2469476  )
        30           I   tau(  30) = (   0.0507148   0.4840918   0.7579680  )
        31           I   tau(  31) = (   0.5330517  -0.0244819   0.7549627  )
        32           I   tau(  32) = (   0.4565439   0.4750442   0.7478516  )
        33           C   tau(  33) = (   0.2361850   0.2543581   0.2508492  )
        34           C   tau(  34) = (   0.7632055   0.2577405   0.2768525  )
        35           C   tau(  35) = (   0.2459037   0.7434879   0.2940726  )
        36           C   tau(  36) = (   0.2584239   0.2544619   0.7333454  )
        37           C   tau(  37) = (   0.7507814   0.8024633   0.2521119  )
        38           C   tau(  38) = (   0.2541900   0.7819983   0.7469011  )
        39           C   tau(  39) = (   0.7334845   0.2557430   0.7555618  )
        40           C   tau(  40) = (   0.7588962   0.7605944   0.7350355  )
        41           N   tau(  41) = (   0.2037711   0.1994989   0.1694141  )
        42           N   tau(  42) = (   0.6928334   0.2384325   0.2033896  )
        43           N   tau(  43) = (   0.1638978   0.6877217   0.2648658  )
        44           N   tau(  44) = (   0.1874125   0.2370453   0.8066424  )
        45           N   tau(  45) = (   0.6647292   0.7526271   0.2233231  )
        46           N   tau(  46) = (   0.1762022   0.7407537   0.8010257  )
        47           N   tau(  47) = (   0.7047174   0.2049987   0.8410260  )
        48           N   tau(  48) = (   0.6885144   0.7530519   0.8105567  )
        49           N   tau(  49) = (   0.3142459   0.2274042   0.3131848  )
        50           N   tau(  50) = (   0.8473438   0.2002533   0.2945757  )
        51           N   tau(  51) = (   0.3418907   0.7294729   0.2580646  )
        52           N   tau(  52) = (   0.3394087   0.1931256   0.7138932  )
        53           N   tau(  53) = (   0.8402676   0.7577796   0.2781266  )
        54           N   tau(  54) = (   0.3285958   0.7274768   0.7001401  )
        55           N   tau(  55) = (   0.8104342   0.2268489   0.6927280  )
        56           N   tau(  56) = (   0.8362032   0.6934650   0.7203633  )
        57           H   tau(  57) = (   0.1959250   0.3283778   0.2681930  )
        58           H   tau(  58) = (   0.7508760   0.3267327   0.3268936  )
        59           H   tau(  59) = (   0.2339754   0.8057858   0.3524237  )
        60           H   tau(  60) = (   0.2493328   0.3251095   0.6850315  )
        61           H   tau(  61) = (   0.7476741   0.8882979   0.2546979  )
        62           H   tau(  62) = (   0.2573922   0.8676640   0.7400320  )
        63           H   tau(  63) = (   0.6906653   0.3275886   0.7352438  )
        64           H   tau(  64) = (   0.7528022   0.8271790   0.6807590  )
        65           H   tau(  65) = (   0.2375186   0.1300647   0.1469048  )
        66           H   tau(  66) = (   0.6987502   0.1752991   0.1532815  )
        67           H   tau(  67) = (   0.1697436   0.6271343   0.2116387  )
        68           H   tau(  68) = (   0.1907006   0.1728669   0.8555621  )
        69           H   tau(  69) = (   0.6570415   0.6721617   0.2218883  )
        70           H   tau(  70) = (   0.1631841   0.6612213   0.8054894  )
        71           H   tau(  71) = (   0.7406515   0.1376125   0.8663563  )
        72           H   tau(  72) = (   0.6892412   0.6922947   0.8637173  )
        73           H   tau(  73) = (   0.1416034   0.2255290   0.1248008  )
        74           H   tau(  74) = (   0.6305221   0.2886045   0.1949709  )
        75           H   tau(  75) = (   0.0941875   0.6989023   0.3029677  )
        76           H   tau(  76) = (   0.1270425   0.2894355   0.8157711  )
        77           H   tau(  77) = (   0.6002922   0.7957164   0.2027109  )
        78           H   tau(  78) = (   0.1221544   0.7878138   0.8371688  )
        79           H   tau(  79) = (   0.6428978   0.2315952   0.8855103  )
        80           H   tau(  80) = (   0.6297908   0.8078741   0.8149643  )
        81           H   tau(  81) = (   0.3567800   0.1596219   0.3029301  )
        82           H   tau(  82) = (   0.8653614   0.1343599   0.2522082  )
        83           H   tau(  83) = (   0.3595803   0.6744956   0.2021160  )
        84           H   tau(  84) = (   0.3540331   0.1257002   0.7551333  )
        85           H   tau(  85) = (   0.8535506   0.6780814   0.2751507  )
        86           H   tau(  86) = (   0.3360999   0.6473671   0.7074209  )
        87           H   tau(  87) = (   0.8545977   0.1603606   0.7055284  )
        88           H   tau(  88) = (   0.8460470   0.6285620   0.7667472  )
        89           H   tau(  89) = (   0.3334338   0.2752490   0.3748999  )
        90           H   tau(  90) = (   0.8982668   0.2199694   0.3540690  )
        91           H   tau(  91) = (   0.3995163   0.7808331   0.2801822  )
        92           H   tau(  92) = (   0.3919600   0.2125625   0.6556620  )
        93           H   tau(  93) = (   0.9025391   0.8054111   0.2964474  )
        94           H   tau(  94) = (   0.3852893   0.7646746   0.6567718  )
        95           H   tau(  95) = (   0.8264436   0.2719321   0.6280305  )
        96           H   tau(  96) = (   0.8882239   0.7048524   0.6597215  )

     number of k points=    32
                       cart. coord. in units 2pi/alat
        k(    1) = (   0.1250000   0.1234412   0.1250621), wk =   0.0625000
        k(    2) = (   0.1250000   0.1234412   0.3751864), wk =   0.0625000
        k(    3) = (   0.1250000   0.3703237   0.1250621), wk =   0.0625000
        k(    4) = (   0.1250000   0.3703237   0.3751864), wk =   0.0625000
        k(    5) = (   0.3750000   0.1234412   0.1250621), wk =   0.0625000
        k(    6) = (   0.3750000   0.1234412   0.3751864), wk =   0.0625000
        k(    7) = (   0.3750000   0.3703237   0.1250621), wk =   0.0625000
        k(    8) = (   0.3750000   0.3703237   0.3751864), wk =   0.0625000
        k(    9) = (  -0.1250000  -0.1234412   0.1250621), wk =   0.0625000
        k(   10) = (  -0.1250000   0.1234412  -0.1250621), wk =   0.0625000
        k(   11) = (   0.1250000  -0.1234412  -0.1250621), wk =   0.0625000
        k(   12) = (  -0.1250000  -0.1234412   0.3751864), wk =   0.0625000
        k(   13) = (  -0.1250000   0.1234412  -0.3751864), wk =   0.0625000
        k(   14) = (   0.1250000  -0.1234412  -0.3751864), wk =   0.0625000
        k(   15) = (  -0.1250000  -0.3703237   0.1250621), wk =   0.0625000
        k(   16) = (  -0.1250000   0.3703237  -0.1250621), wk =   0.0625000
        k(   17) = (   0.1250000  -0.3703237  -0.1250621), wk =   0.0625000
        k(   18) = (  -0.1250000  -0.3703237   0.3751864), wk =   0.0625000
        k(   19) = (  -0.1250000   0.3703237  -0.3751864), wk =   0.0625000
        k(   20) = (   0.1250000  -0.3703237  -0.3751864), wk =   0.0625000
        k(   21) = (  -0.3750000  -0.1234412   0.1250621), wk =   0.0625000
        k(   22) = (  -0.3750000   0.1234412  -0.1250621), wk =   0.0625000
        k(   23) = (   0.3750000  -0.1234412  -0.1250621), wk =   0.0625000
        k(   24) = (  -0.3750000  -0.1234412   0.3751864), wk =   0.0625000
        k(   25) = (  -0.3750000   0.1234412  -0.3751864), wk =   0.0625000
        k(   26) = (   0.3750000  -0.1234412  -0.3751864), wk =   0.0625000
        k(   27) = (  -0.3750000  -0.3703237   0.1250621), wk =   0.0625000
        k(   28) = (  -0.3750000   0.3703237  -0.1250621), wk =   0.0625000
        k(   29) = (   0.3750000  -0.3703237  -0.1250621), wk =   0.0625000
        k(   30) = (  -0.3750000  -0.3703237   0.3751864), wk =   0.0625000
        k(   31) = (  -0.3750000   0.3703237  -0.3751864), wk =   0.0625000
        k(   32) = (   0.3750000  -0.3703237  -0.3751864), wk =   0.0625000

     Dense  grid:  2481141 G-vectors     FFT dimensions: ( 180, 180, 180)

     Estimated max dynamical RAM per process >       1.82 GB

     Estimated total dynamical RAM >      58.15 GB

     Initial potential from superposition of free atoms

     starting charge  431.97851, renormalised to  432.00000
     Starting wfcs are  304 randomized atomic wfcs
     Checking if some PAW data can be deallocated... 

     total cpu time spent up to now is     2881.0 secs

     Self-consistent Calculation

     iteration #  1     ecut=   120.00 Ry     beta= 0.70
     Davidson diagonalization with overlap
     ethr =  1.00E-02,  avg # of iterations =  2.0

     total cpu time spent up to now is    14864.9 secs

     total energy              =  -16705.01446668 Ry
     Harris-Foulkes estimate   =  -16709.28717235 Ry
     estimated scf accuracy    <       6.76282819 Ry

     iteration #  2     ecut=   120.00 Ry     beta= 0.70
     Davidson diagonalization with overlap
     ethr =  1.57E-03,  avg # of iterations =  4.0

     total cpu time spent up to now is    27588.1 secs

     total energy              =  -16706.55291780 Ry
     Harris-Foulkes estimate   =  -16708.64503570 Ry
     estimated scf accuracy    <       3.90054997 Ry

     iteration #  3     ecut=   120.00 Ry     beta= 0.70
     Davidson diagonalization with overlap
     ethr =  9.03E-04,  avg # of iterations =  3.0

     total cpu time spent up to now is    34594.6 secs

     total energy              =  -16707.41787175 Ry
     Harris-Foulkes estimate   =  -16707.48485784 Ry
     estimated scf accuracy    <       0.14566343 Ry

     iteration #  4     ecut=   120.00 Ry     beta= 0.70
     Davidson diagonalization with overlap
     ethr =  3.37E-05,  avg # of iterations =  4.0

     total cpu time spent up to now is    42707.9 secs

     total energy              =  -16707.46148206 Ry
     Harris-Foulkes estimate   =  -16707.48120418 Ry
     estimated scf accuracy    <       0.03920925 Ry

     iteration #  5     ecut=   120.00 Ry     beta= 0.70
     Davidson diagonalization with overlap
     ethr =  9.08E-06,  avg # of iterations =  3.0

     total cpu time spent up to now is    49290.3 secs

     total energy              =  -16707.46893466 Ry
     Harris-Foulkes estimate   =  -16707.47015205 Ry
     estimated scf accuracy    <       0.00226477 Ry

     iteration #  6     ecut=   120.00 Ry     beta= 0.70
     Davidson diagonalization with overlap
     ethr =  5.24E-07,  avg # of iterations =  4.0

     total cpu time spent up to now is    56109.6 secs

     total energy              =  -16707.46957004 Ry
     Harris-Foulkes estimate   =  -16707.47011073 Ry
     estimated scf accuracy    <       0.00119521 Ry

     iteration #  7     ecut=   120.00 Ry     beta= 0.70
     Davidson diagonalization with overlap
     ethr =  2.77E-07,  avg # of iterations =  3.9

     total cpu time spent up to now is    62415.5 secs

     total energy              =  -16707.46982667 Ry
     Harris-Foulkes estimate   =  -16707.46986503 Ry
     estimated scf accuracy    <       0.00008704 Ry

     iteration #  8     ecut=   120.00 Ry     beta= 0.70
     Davidson diagonalization with overlap
     ethr =  2.01E-08,  avg # of iterations =  4.0

     total cpu time spent up to now is    68374.6 secs

     total energy              =  -16707.46984945 Ry
     Harris-Foulkes estimate   =  -16707.46985894 Ry
     estimated scf accuracy    <       0.00002092 Ry

     iteration #  9     ecut=   120.00 Ry     beta= 0.70
     Davidson diagonalization with overlap
     ethr =  4.84E-09,  avg # of iterations =  4.0

     total cpu time spent up to now is    75236.3 secs

     total energy              =  -16707.46985390 Ry
     Harris-Foulkes estimate   =  -16707.46985482 Ry
     estimated scf accuracy    <       0.00000195 Ry

     iteration # 10     ecut=   120.00 Ry     beta= 0.70
     Davidson diagonalization with overlap
     ethr =  4.50E-10,  avg # of iterations =  4.0

     total cpu time spent up to now is    83385.5 secs

     total energy              =  -16707.46985437 Ry
     Harris-Foulkes estimate   =  -16707.46985452 Ry
     estimated scf accuracy    <       0.00000034 Ry

     iteration # 11     ecut=   120.00 Ry     beta= 0.70
     Davidson diagonalization with overlap
     ethr =  7.77E-11,  avg # of iterations =  4.0

     total cpu time spent up to now is    93518.4 secs

     End of self-consistent calculation

          k = 0.1250 0.1234 0.1251 (310147 PWs)   bands (ev):

   -17.9578 -17.8965 -17.8844 -17.8580 -17.8470 -17.8328 -17.8209 -17.7950
   -15.7311 -15.7060 -15.6718 -15.6326 -15.6232 -15.6018 -15.5978 -15.5465
   -14.3372 -14.3280 -14.2997 -14.2961 -14.2901 -14.2900 -14.2851 -14.2788
   -14.2693 -14.2579 -14.2537 -14.2524 -14.2513 -14.2495 -14.2493 -14.2478
   -14.2404 -14.2397 -14.2391 -14.2390 -14.2360 -14.2327 -14.2242 -14.2228
   -14.2210 -14.2183 -14.2182 -14.2160 -14.2149 -14.2147 -14.2141 -14.2100
   -14.1995 -14.1994 -14.1976 -14.1906 -14.1894 -14.1874 -14.1836 -14.1774
    -9.8134  -9.7704  -9.7133  -9.6909  -9.6541  -9.6334  -9.5944  -9.5783
    -9.4795  -9.4742  -9.4092  -9.3731  -9.3437  -9.3039  -9.2863  -9.2451
    -9.2191  -9.1829  -9.1734  -9.1430  -9.1206  -9.1097  -9.0815  -9.0587
    -9.0450  -9.0207  -8.9998  -8.9811  -8.9591  -8.9478  -8.8905  -8.8523
    -7.8047  -7.7188  -7.6950  -7.6702  -7.6593  -7.6375  -7.6303  -7.6191
    -7.0967  -7.0814  -7.0708  -7.0277  -7.0196  -6.9989  -6.9904  -6.9204
    -5.8773  -5.4905  -5.4671  -5.4255  -5.4012  -5.3527  -5.3414  -5.3305
    -5.3172  -5.2987  -5.2881  -5.2671  -5.0382  -4.9892  -4.9783  -4.5876
    -3.8887  -3.8528  -3.8404  -3.8139  -3.7955  -3.7869  -3.7635  -3.7500
    -3.3293  -3.3057  -3.2990  -3.2576  -3.2564  -3.2450  -3.2272  -3.1897
    -0.8877  -0.8572  -0.8142  -0.7573  -0.7303  -0.7074  -0.6876  -0.6502
    -0.6125  -0.5905  -0.5305  -0.4941  -0.1841  -0.1560  -0.1226  -0.1059
    -0.0758  -0.0464  -0.0168   0.0204   0.3542   0.4166   0.4497   0.4779
     0.4957   0.5143   0.5370   0.5586   0.5845   0.6341   0.6779   0.7436
     0.7767   0.8013   0.8510   0.8702   0.8898   0.9190   0.9451   0.9692
     0.9938   1.0188   1.0275   1.0454   1.0570   1.0722   1.0901   1.0985
     1.1139   1.1402   1.1594   1.1820   1.1918   1.2069   1.2322   1.2496
     1.2652   1.2815   1.3006   1.3096   1.3297   1.3405   1.3661   1.4071
     1.4208   1.4494   1.4633   1.4740   1.5051   1.5231   1.5774   1.6043
     1.6595   1.6996   1.7136   1.7543   1.7999   1.8440   1.8665   2.1118

          k = 0.1250 0.1234 0.3752 (310111 PWs)   bands (ev):

   -17.9578 -17.8965 -17.8844 -17.8580 -17.8470 -17.8328 -17.8210 -17.7950
   -15.7311 -15.7060 -15.6718 -15.6326 -15.6231 -15.6019 -15.5979 -15.5465
   -14.3371 -14.3280 -14.2997 -14.2961 -14.2901 -14.2899 -14.2849 -14.2786
   -14.2690 -14.2578 -14.2537 -14.2529 -14.2513 -14.2495 -14.2491 -14.2481
   -14.2404 -14.2398 -14.2392 -14.2390 -14.2360 -14.2329 -14.2242 -14.2231
   -14.2210 -14.2184 -14.2182 -14.2160 -14.2149 -14.2147 -14.2142 -14.2100
   -14.1995 -14.1994 -14.1976 -14.1906 -14.1894 -14.1874 -14.1836 -14.1774
    -9.7949  -9.7622  -9.7158  -9.6871  -9.6614  -9.6485  -9.6201  -9.5844
    -9.4819  -9.4489  -9.4053  -9.3752  -9.3483  -9.3079  -9.2930  -9.2696
    -9.2247  -9.2000  -9.1464  -9.1220  -9.1062  -9.0875  -9.0715  -9.0581
    -9.0395  -9.0220  -8.9967  -8.9908  -8.9734  -8.9524  -8.8980  -8.8547
    -7.8048  -7.7189  -7.6943  -7.6705  -7.6588  -7.6373  -7.6317  -7.6193
    -7.0967  -7.0813  -7.0708  -7.0278  -7.0195  -6.9989  -6.9904  -6.9204
    -5.7621  -5.5879  -5.4822  -5.3619  -5.3531  -5.3389  -5.3319  -5.3203
    -5.3024  -5.2921  -5.2735  -5.2656  -5.1545  -5.1126  -4.8960  -4.7179
    -3.8876  -3.8519  -3.8394  -3.8164  -3.7958  -3.7854  -3.7650  -3.7504
    -3.3292  -3.3054  -3.2987  -3.2579  -3.2562  -3.2451  -3.2275  -3.1897
    -0.8575  -0.8028  -0.7433  -0.7134  -0.6761  -0.6316  -0.6209  -0.5523
    -0.4337  -0.3898  -0.2986  -0.2261  -0.1704  -0.1314  -0.1179  -0.1015
    -0.0623  -0.0415  -0.0266   0.0183   0.1603   0.2326   0.2982   0.3799
     0.4019   0.4293   0.4505   0.5121   0.5230   0.5534   0.5651   0.5984
     0.6369   0.7109   0.8265   0.8459   0.8865   0.9126   0.9205   0.9533
     0.9662   0.9807   1.0114   1.0312   1.0525   1.0617   1.0967   1.1141
     1.1382   1.1473   1.1671   1.1814   1.2184   1.2281   1.2453   1.2597
     1.2755   1.2918   1.3016   1.3209   1.3407   1.3559   1.3722   1.3769
     1.4170   1.4385   1.4473   1.4764   1.5062   1.5265   1.5367   1.5624
     1.6283   1.6557   1.6712   1.6893   1.7503   1.7617   1.8352   1.9701

          k = 0.1250 0.3703 0.1251 (310061 PWs)   bands (ev):

   -17.9578 -17.8965 -17.8844 -17.8580 -17.8470 -17.8328 -17.8209 -17.7950
   -15.7311 -15.7060 -15.6718 -15.6326 -15.6232 -15.6018 -15.5978 -15.5465
   -14.3372 -14.3278 -14.2997 -14.2961 -14.2901 -14.2899 -14.2848 -14.2785
   -14.2691 -14.2581 -14.2538 -14.2526 -14.2513 -14.2495 -14.2493 -14.2482
   -14.2404 -14.2399 -14.2391 -14.2387 -14.2360 -14.2326 -14.2242 -14.2223
   -14.2210 -14.2182 -14.2179 -14.2160 -14.2157 -14.2149 -14.2145 -14.2100
   -14.1995 -14.1994 -14.1976 -14.1906 -14.1894 -14.1874 -14.1836 -14.1774
    -9.8064  -9.7773  -9.7107  -9.6914  -9.6530  -9.6339  -9.5933  -9.5816
    -9.4749  -9.4459  -9.4036  -9.3898  -9.3534  -9.3305  -9.2966  -9.2869
    -9.2190  -9.1774  -9.1533  -9.1437  -9.1071  -9.0925  -9.0651  -9.0521
    -9.0337  -9.0242  -9.0037  -8.9728  -8.9668  -8.9430  -8.8955  -8.8708
    -7.8038  -7.7181  -7.6955  -7.6667  -7.6602  -7.6400  -7.6290  -7.6206
    -7.0965  -7.0814  -7.0707  -7.0271  -7.0198  -6.9995  -6.9904  -6.9205
    -5.7629  -5.5612  -5.4845  -5.3648  -5.3509  -5.3448  -5.3356  -5.3180
    -5.3062  -5.2965  -5.2846  -5.2599  -5.1468  -5.1116  -4.9051  -4.7298
    -3.8870  -3.8521  -3.8417  -3.8131  -3.7953  -3.7879  -3.7637  -3.7503
    -3.3294  -3.3042  -3.2999  -3.2572  -3.2553  -3.2471  -3.2273  -3.1899
    -0.8808  -0.8485  -0.7231  -0.7128  -0.6938  -0.6313  -0.5788  -0.5318
    -0.3848  -0.3460  -0.2850  -0.2017  -0.1630  -0.1341  -0.1211  -0.0940
    -0.0812  -0.0551  -0.0174   0.0159   0.1999   0.2501   0.3278   0.3546
     0.4045   0.4745   0.4919   0.5112   0.5276   0.5353   0.5512   0.6301
     0.6510   0.7105   0.7477   0.7723   0.8215   0.8687   0.9120   0.9318
     0.9608   1.0067   1.0175   1.0332   1.0571   1.0755   1.0862   1.1092
     1.1242   1.1424   1.1728   1.1922   1.2090   1.2273   1.2378   1.2673
     1.2769   1.2923   1.3075   1.3219   1.3350   1.3631   1.3841   1.4095
     1.4161   1.4387   1.4506   1.4715   1.4977   1.5104   1.5388   1.5586
     1.5843   1.6133   1.6445   1.6938   1.7201   1.7338   1.8588   1.9315

          k = 0.1250 0.3703 0.3752 (310177 PWs)   bands (ev):

   -17.9578 -17.8965 -17.8844 -17.8580 -17.8470 -17.8328 -17.8210 -17.7950
   -15.7311 -15.7060 -15.6718 -15.6326 -15.6231 -15.6019 -15.5979 -15.5465
   -14.3371 -14.3278 -14.2997 -14.2961 -14.2901 -14.2899 -14.2845 -14.2782
   -14.2689 -14.2580 -14.2538 -14.2531 -14.2513 -14.2495 -14.2491 -14.2485
   -14.2404 -14.2399 -14.2390 -14.2389 -14.2360 -14.2328 -14.2242 -14.2226
   -14.2210 -14.2182 -14.2180 -14.2160 -14.2157 -14.2149 -14.2145 -14.2100
   -14.1995 -14.1994 -14.1976 -14.1906 -14.1894 -14.1874 -14.1836 -14.1774
    -9.7901  -9.7657  -9.7139  -9.6862  -9.6589  -9.6511  -9.6204  -9.5855
    -9.4716  -9.4336  -9.4027  -9.3861  -9.3550  -9.3295  -9.3098  -9.2906
    -9.2399  -9.1649  -9.1493  -9.1186  -9.0933  -9.0843  -9.0686  -9.0504
    -9.0355  -9.0170  -9.0013  -8.9851  -8.9737  -8.9374  -8.9055  -8.8738
    -7.8039  -7.7181  -7.6947  -7.6676  -7.6590  -7.6400  -7.6306  -7.6205
    -7.0966  -7.0814  -7.0708  -7.0272  -7.0197  -6.9994  -6.9905  -6.9205
    -5.6516  -5.5032  -5.4829  -5.4231  -5.3559  -5.3465  -5.3371  -5.3231
    -5.3105  -5.2907  -5.2750  -5.2293  -5.2120  -5.0497  -5.0160  -4.8576
    -3.8861  -3.8513  -3.8403  -3.8147  -3.7966  -3.7861  -3.7651  -3.7502
    -3.3294  -3.3040  -3.2998  -3.2571  -3.2557  -3.2473  -3.2276  -3.1900
    -0.8461  -0.7235  -0.6626  -0.5909  -0.4675  -0.4291  -0.3593  -0.3432
    -0.2976  -0.2863  -0.2495  -0.2323  -0.1548  -0.1302  -0.1064  -0.0806
    -0.0719  -0.0478  -0.0241   0.0136   0.1269   0.2137   0.2296   0.2639
     0.3077   0.3290   0.3433   0.3801   0.4422   0.5198   0.5291   0.5683
     0.6163   0.6594   0.7232   0.7539   0.7832   0.8251   0.8290   0.8560
     0.8754   0.9323   0.9520   0.9945   0.9985   1.0444   1.0553   1.0906
     1.1297   1.1513   1.1598   1.1876   1.2184   1.2382   1.2456   1.2698
     1.2984   1.3156   1.3202   1.3402   1.3541   1.3732   1.3858   1.4016
     1.4103   1.4237   1.4563   1.4692   1.4854   1.4933   1.5280   1.5560
     1.5652   1.5946   1.6228   1.6581   1.6735   1.7016   1.7309   1.8147

          k = 0.3750 0.1234 0.1251 (310118 PWs)   bands (ev):

   -17.9577 -17.8965 -17.8845 -17.8580 -17.8470 -17.8328 -17.8210 -17.7950
   -15.7276 -15.7096 -15.6718 -15.6326 -15.6232 -15.6017 -15.5979 -15.5465
   -14.3370 -14.3279 -14.2997 -14.2961 -14.2905 -14.2900 -14.2851 -14.2788
   -14.2690 -14.2579 -14.2537 -14.2523 -14.2513 -14.2494 -14.2483 -14.2477
   -14.2409 -14.2404 -14.2390 -14.2387 -14.2360 -14.2320 -14.2242 -14.2231
   -14.2210 -14.2186 -14.2182 -14.2160 -14.2149 -14.2149 -14.2145 -14.2100
   -14.1995 -14.1994 -14.1976 -14.1906 -14.1894 -14.1874 -14.1836 -14.1774
    -9.7856  -9.7468  -9.7293  -9.7062  -9.6802  -9.6331  -9.5969  -9.5857
    -9.4945  -9.4640  -9.4002  -9.3640  -9.3466  -9.3202  -9.2797  -9.2500
    -9.2117  -9.1874  -9.1685  -9.1517  -9.1209  -9.1078  -9.0924  -9.0573
    -9.0198  -9.0065  -8.9887  -8.9761  -8.9534  -8.9388  -8.9109  -8.8735
    -7.8022  -7.7233  -7.6951  -7.6700  -7.6597  -7.6385  -7.6305  -7.6192
    -7.0954  -7.0814  -7.0705  -7.0274  -7.0195  -6.9993  -6.9898  -6.9205
    -5.7586  -5.5790  -5.4577  -5.3707  -5.3601  -5.3516  -5.3301  -5.3170
    -5.2997  -5.2958  -5.2754  -5.2626  -5.1625  -5.1162  -4.8920  -4.7246
    -3.8892  -3.8514  -3.8411  -3.8137  -3.7945  -3.7880  -3.7641  -3.7504
    -3.3285  -3.3040  -3.2999  -3.2580  -3.2546  -3.2428  -3.2311  -3.1916
    -0.8544  -0.8014  -0.7588  -0.7553  -0.6945  -0.6531  -0.6306  -0.5882
    -0.4398  -0.3271  -0.2616  -0.2080  -0.1519  -0.1334  -0.1074  -0.0923
    -0.0652  -0.0294  -0.0162   0.0114   0.1281   0.2444   0.3321   0.3948
     0.4239   0.4609   0.4676   0.5151   0.5281   0.5546   0.5781   0.6266
     0.6779   0.7034   0.7975   0.8328   0.8476   0.8739   0.9222   0.9379
     0.9598   0.9915   1.0106   1.0267   1.0464   1.0701   1.0802   1.1059
     1.1220   1.1520   1.1590   1.1948   1.2062   1.2234   1.2447   1.2633
     1.2674   1.2961   1.3093   1.3243   1.3426   1.3582   1.3872   1.4069
     1.4423   1.4473   1.4716   1.4912   1.5031   1.5194   1.5611   1.5860
     1.6184   1.6266   1.6408   1.6688   1.6978   1.7323   1.8309   1.9153

          k = 0.3750 0.1234 0.3752 (310160 PWs)   bands (ev):

   -17.9577 -17.8965 -17.8845 -17.8580 -17.8470 -17.8328 -17.8210 -17.7950
   -15.7276 -15.7096 -15.6718 -15.6326 -15.6231 -15.6017 -15.5980 -15.5465
   -14.3368 -14.3279 -14.2997 -14.2961 -14.2904 -14.2900 -14.2848 -14.2786
   -14.2688 -14.2577 -14.2537 -14.2528 -14.2513 -14.2494 -14.2481 -14.2480
   -14.2410 -14.2404 -14.2390 -14.2389 -14.2360 -14.2322 -14.2242 -14.2234
   -14.2210 -14.2188 -14.2182 -14.2160 -14.2149 -14.2149 -14.2145 -14.2100
   -14.1995 -14.1994 -14.1976 -14.1906 -14.1894 -14.1874 -14.1836 -14.1774
    -9.7700  -9.7401  -9.7168  -9.7013  -9.6838  -9.6567  -9.6270  -9.5913
    -9.4682  -9.4577  -9.4141  -9.3879  -9.3363  -9.3131  -9.2935  -9.2730
    -9.2154  -9.1992  -9.1457  -9.1234  -9.1048  -9.0928  -9.0752  -9.0562
    -9.0270  -9.0136  -8.9896  -8.9737  -8.9613  -8.9461  -8.9143  -8.8789
    -7.8021  -7.7234  -7.6943  -7.6705  -7.6582  -7.6392  -7.6319  -7.6200
    -7.0955  -7.0814  -7.0704  -7.0275  -7.0194  -6.9993  -6.9899  -6.9205
    -5.6472  -5.4928  -5.4676  -5.4440  -5.3689  -5.3529  -5.3328  -5.3244
    -5.3007  -5.2949  -5.2748  -5.2609  -5.1890  -5.0403  -5.0087  -4.8546
    -3.8881  -3.8506  -3.8399  -3.8160  -3.7938  -3.7878  -3.7657  -3.7506
    -3.3285  -3.3038  -3.2998  -3.2577  -3.2546  -3.2427  -3.2312  -3.1915
    -0.7817  -0.7583  -0.6952  -0.6595  -0.5026  -0.4582  -0.4100  -0.3516
    -0.3290  -0.2635  -0.2426  -0.1888  -0.1526  -0.1305  -0.1008  -0.0817
    -0.0576  -0.0437  -0.0115   0.0070   0.1058   0.2039   0.2332   0.2635
     0.3125   0.3213   0.3687   0.4203   0.4463   0.4795   0.5187   0.5349
     0.6543   0.7169   0.7502   0.7726   0.8181   0.8297   0.8482   0.8770
     0.9284   0.9460   0.9627   0.9785   1.0047   1.0439   1.0599   1.0845
     1.1162   1.1322   1.1651   1.1847   1.2080   1.2290   1.2484   1.2755
     1.2904   1.3015   1.3257   1.3382   1.3541   1.3592   1.3746   1.4008
     1.4157   1.4340   1.4539   1.4849   1.4912   1.5172   1.5363   1.5595
     1.5745   1.5922   1.6250   1.6630   1.6712   1.7123   1.7452   1.7879

          k = 0.3750 0.3703 0.1251 (310151 PWs)   bands (ev):

   -17.9577 -17.8965 -17.8845 -17.8580 -17.8470 -17.8328 -17.8210 -17.7950
   -15.7276 -15.7096 -15.6718 -15.6326 -15.6232 -15.6017 -15.5979 -15.5465
   -14.3370 -14.3277 -14.2997 -14.2961 -14.2904 -14.2900 -14.2848 -14.2785
   -14.2689 -14.2580 -14.2538 -14.2526 -14.2513 -14.2495 -14.2484 -14.2482
   -14.2411 -14.2404 -14.2391 -14.2384 -14.2360 -14.2320 -14.2242 -14.2224
   -14.2210 -14.2183 -14.2182 -14.2164 -14.2160 -14.2149 -14.2146 -14.2100
   -14.1995 -14.1994 -14.1976 -14.1906 -14.1894 -14.1874 -14.1836 -14.1774
    -9.7820  -9.7505  -9.7263  -9.7058  -9.6796  -9.6339  -9.5969  -9.5846
    -9.4835  -9.4501  -9.4062  -9.3819  -9.3494  -9.3410  -9.2845  -9.2763
    -9.2128  -9.1883  -9.1585  -9.1357  -9.1217  -9.0968  -9.0738  -9.0528
    -9.0242  -8.9981  -8.9872  -8.9687  -8.9534  -8.9383  -8.9177  -8.8893
    -7.8015  -7.7224  -7.6955  -7.6669  -7.6604  -7.6409  -7.6290  -7.6206
    -7.0954  -7.0812  -7.0705  -7.0268  -7.0197  -7.0000  -6.9899  -6.9205
    -5.6482  -5.4814  -5.4601  -5.4402  -5.3709  -5.3579  -5.3319  -5.3215
    -5.3031  -5.2927  -5.2693  -5.2435  -5.2075  -5.0509  -5.0214  -4.8646
    -3.8876  -3.8515  -3.8413  -3.8131  -3.7939  -3.7893  -3.7640  -3.7504
    -3.3287  -3.3033  -3.3000  -3.2584  -3.2537  -3.2441  -3.2310  -3.1919
    -0.8472  -0.7355  -0.6822  -0.6145  -0.5443  -0.4413  -0.3853  -0.3425
    -0.2932  -0.2483  -0.2097  -0.1744  -0.1381  -0.1061  -0.0936  -0.0842
    -0.0681  -0.0335  -0.0248   0.0028   0.0590   0.1971   0.2334   0.2521
     0.3351   0.3594   0.4176   0.4476   0.4817   0.4931   0.5285   0.5547
     0.5990   0.6784   0.7033   0.7264   0.7905   0.8200   0.8585   0.8863
     0.9194   0.9422   0.9665   0.9827   1.0186   1.0417   1.0814   1.0932
     1.1070   1.1270   1.1457   1.1623   1.1847   1.2215   1.2365   1.2587
     1.2853   1.2983   1.3156   1.3225   1.3479   1.3647   1.3857   1.4036
     1.4194   1.4524   1.4648   1.4871   1.4992   1.5195   1.5389   1.5568
     1.5786   1.5954   1.6234   1.6351   1.6511   1.6645   1.6969   1.7333

          k = 0.3750 0.3703 0.3752 (310127 PWs)   bands (ev):

   -17.9577 -17.8965 -17.8845 -17.8580 -17.8470 -17.8328 -17.8210 -17.7950
   -15.7276 -15.7096 -15.6718 -15.6326 -15.6231 -15.6017 -15.5980 -15.5465
   -14.3368 -14.3277 -14.2997 -14.2961 -14.2903 -14.2900 -14.2845 -14.2782
   -14.2686 -14.2579 -14.2538 -14.2531 -14.2513 -14.2494 -14.2485 -14.2481
   -14.2411 -14.2404 -14.2390 -14.2386 -14.2360 -14.2322 -14.2242 -14.2227
   -14.2210 -14.2184 -14.2182 -14.2164 -14.2160 -14.2149 -14.2146 -14.2100
   -14.1995 -14.1994 -14.1976 -14.1906 -14.1894 -14.1874 -14.1836 -14.1774
    -9.7672  -9.7407  -9.7163  -9.7007  -9.6841  -9.6569  -9.6262  -9.5888
    -9.4633  -9.4409  -9.4037  -9.3849  -9.3735  -9.3363  -9.3195  -9.2776
    -9.2233  -9.1638  -9.1451  -9.1202  -9.1004  -9.0868  -9.0696  -9.0548
    -9.0258  -9.0035  -8.9851  -8.9736  -8.9562  -8.9443  -8.9214  -8.8940
    -7.8013  -7.7224  -7.6947  -7.6679  -7.6585  -7.6415  -7.6308  -7.6210
    -7.0955  -7.0812  -7.0704  -7.0269  -7.0196  -7.0000  -6.9899  -6.9204
    -5.5409  -5.4627  -5.3998  -5.3744  -5.3620  -5.3538  -5.3311  -5.3147
    -5.3108  -5.2956  -5.2832  -5.2634  -5.1935  -5.1512  -5.1367  -4.9910
    -3.8867  -3.8506  -3.8402  -3.8147  -3.7933  -3.7893  -3.7655  -3.7504
    -3.3287  -3.3034  -3.2999  -3.2582  -3.2536  -3.2441  -3.2310  -3.1918
    -0.5639  -0.5037  -0.4625  -0.4160  -0.3977  -0.3426  -0.3221  -0.3021
    -0.2840  -0.2294  -0.2213  -0.1720  -0.1341  -0.1271  -0.0953  -0.0762
    -0.0616  -0.0426  -0.0153   0.0025   0.0591   0.1687   0.1870   0.2041
     0.2530   0.2779   0.2902   0.3158   0.3477   0.3903   0.4336   0.4929
     0.6364   0.7030   0.7235   0.7636   0.7913   0.8052   0.8292   0.8484
     0.8812   0.8892   0.9064   0.9277   0.9639   0.9831   1.0150   1.0242
     1.0622   1.0679   1.0980   1.1085   1.1218   1.1538   1.1735   1.1904
     1.2822   1.3046   1.3333   1.3489   1.3638   1.3757   1.3947   1.4017
     1.4191   1.4365   1.4540   1.4727   1.4872   1.5105   1.5322   1.5491
     1.5543   1.5750   1.5973   1.6094   1.6285   1.6404   1.6778   1.6915

          k =-0.1250-0.1234 0.1251 (310147 PWs)   bands (ev):

   -17.9578 -17.8965 -17.8844 -17.8580 -17.8470 -17.8328 -17.8209 -17.7950
   -15.7311 -15.7060 -15.6718 -15.6326 -15.6232 -15.6018 -15.5978 -15.5465
   -14.3372 -14.3280 -14.2997 -14.2961 -14.2901 -14.2900 -14.2851 -14.2788
   -14.2693 -14.2579 -14.2537 -14.2524 -14.2513 -14.2495 -14.2493 -14.2478
   -14.2404 -14.2397 -14.2391 -14.2390 -14.2360 -14.2327 -14.2242 -14.2228
   -14.2210 -14.2183 -14.2182 -14.2160 -14.2149 -14.2147 -14.2141 -14.2100
   -14.1995 -14.1994 -14.1976 -14.1906 -14.1894 -14.1874 -14.1836 -14.1774
    -9.8127  -9.7709  -9.7131  -9.6905  -9.6526  -9.6352  -9.5952  -9.5799
    -9.4906  -9.4635  -9.4065  -9.3699  -9.3353  -9.3214  -9.2790  -9.2387
    -9.2259  -9.1836  -9.1673  -9.1523  -9.1232  -9.1058  -9.0821  -9.0559
    -9.0464  -9.0196  -8.9987  -8.9838  -8.9605  -8.9458  -8.8908  -8.8515
    -7.8048  -7.7189  -7.6951  -7.6703  -7.6591  -7.6375  -7.6302  -7.6189
    -7.0967  -7.0814  -7.0708  -7.0276  -7.0196  -6.9989  -6.9904  -6.9204
    -5.8773  -5.4882  -5.4685  -5.4247  -5.4050  -5.3532  -5.3420  -5.3299
    -5.3183  -5.2973  -5.2882  -5.2643  -5.0381  -4.9891  -4.9788  -4.5878
    -3.8887  -3.8527  -3.8404  -3.8142  -3.7957  -3.7865  -3.7636  -3.7501
    -3.3294  -3.3058  -3.2992  -3.2574  -3.2563  -3.2450  -3.2272  -3.1897
    -0.9003  -0.8549  -0.8043  -0.7509  -0.7336  -0.7079  -0.6825  -0.6517
    -0.6138  -0.5932  -0.5331  -0.4938  -0.1804  -0.1517  -0.1182  -0.1137
    -0.0755  -0.0493  -0.0169   0.0211   0.3555   0.4220   0.4533   0.4783
     0.4991   0.5090   0.5264   0.5694   0.5829   0.6312   0.6679   0.7523
     0.7663   0.8148   0.8258   0.8649   0.8786   0.9247   0.9458   0.9707
     0.9901   1.0119   1.0282   1.0453   1.0559   1.0743   1.0983   1.1114
     1.1312   1.1379   1.1663   1.1772   1.1958   1.2108   1.2342   1.2484
     1.2655   1.2810   1.3009   1.3108   1.3258   1.3397   1.3684   1.3966
     1.4261   1.4422   1.4532   1.4857   1.5047   1.5280   1.5785   1.6019
     1.6624   1.6949   1.7157   1.7515   1.8012   1.8392   1.8700   2.1113

          k =-0.1250 0.1234-0.1251 (310147 PWs)   bands (ev):

   -17.9578 -17.8965 -17.8844 -17.8580 -17.8470 -17.8328 -17.8209 -17.7950
   -15.7311 -15.7060 -15.6718 -15.6326 -15.6232 -15.6018 -15.5978 -15.5465
   -14.3372 -14.3280 -14.2997 -14.2961 -14.2901 -14.2900 -14.2851 -14.2788
   -14.2693 -14.2579 -14.2537 -14.2524 -14.2513 -14.2495 -14.2493 -14.2478
   -14.2404 -14.2397 -14.2391 -14.2390 -14.2360 -14.2327 -14.2242 -14.2228
   -14.2210 -14.2183 -14.2182 -14.2160 -14.2149 -14.2147 -14.2141 -14.2100
   -14.1995 -14.1994 -14.1976 -14.1906 -14.1894 -14.1874 -14.1836 -14.1774
    -9.8137  -9.7703  -9.7145  -9.6893  -9.6525  -9.6342  -9.5942  -9.5802
    -9.4820  -9.4697  -9.4120  -9.3751  -9.3411  -9.3071  -9.2781  -9.2421
    -9.2211  -9.1920  -9.1672  -9.1530  -9.1153  -9.1035  -9.0859  -9.0569
    -9.0471  -9.0191  -9.0030  -8.9761  -8.9637  -8.9457  -8.8906  -8.8520
    -7.8046  -7.7189  -7.6952  -7.6702  -7.6590  -7.6378  -7.6302  -7.6192
    -7.0966  -7.0815  -7.0708  -7.0276  -7.0196  -6.9988  -6.9904  -6.9205
    -5.8772  -5.4911  -5.4662  -5.4279  -5.4051  -5.3492  -5.3421  -5.3306
    -5.3182  -5.2971  -5.2859  -5.2645  -5.0391  -4.9884  -4.9797  -4.5885
    -3.8886  -3.8524  -3.8410  -3.8137  -3.7957  -3.7866  -3.7637  -3.7500
    -3.3293  -3.3059  -3.2988  -3.2579  -3.2564  -3.2448  -3.2271  -3.1897
    -0.8807  -0.8529  -0.8012  -0.7529  -0.7329  -0.7118  -0.6874  -0.6635
    -0.6189  -0.5947  -0.5347  -0.4963  -0.1832  -0.1605  -0.1179  -0.1121
    -0.0744  -0.0452  -0.0141   0.0193   0.3546   0.4275   0.4493   0.4800
     0.4976   0.5153   0.5362   0.5685   0.5855   0.6331   0.6814   0.7314
     0.7555   0.8112   0.8454   0.8716   0.9120   0.9301   0.9518   0.9596
     0.9911   0.9954   1.0149   1.0389   1.0516   1.0691   1.0901   1.1107
     1.1264   1.1407   1.1634   1.1867   1.1998   1.2144   1.2366   1.2593
     1.2610   1.2760   1.2896   1.3123   1.3199   1.3343   1.3627   1.4074
     1.4229   1.4444   1.4664   1.4813   1.5102   1.5273   1.5796   1.6012
     1.6694   1.7035   1.7135   1.7668   1.7846   1.8310   1.8663   2.0946

          k = 0.1250-0.1234-0.1251 (310147 PWs)   bands (ev):

   -17.9578 -17.8965 -17.8844 -17.8580 -17.8470 -17.8328 -17.8209 -17.7950
   -15.7311 -15.7060 -15.6718 -15.6326 -15.6232 -15.6018 -15.5978 -15.5465
   -14.3372 -14.3280 -14.2997 -14.2961 -14.2901 -14.2900 -14.2851 -14.2788
   -14.2693 -14.2579 -14.2537 -14.2524 -14.2513 -14.2495 -14.2493 -14.2478
   -14.2404 -14.2397 -14.2391 -14.2390 -14.2360 -14.2327 -14.2242 -14.2228
   -14.2210 -14.2183 -14.2182 -14.2160 -14.2149 -14.2147 -14.2141 -14.2100
   -14.1995 -14.1994 -14.1976 -14.1906 -14.1894 -14.1874 -14.1836 -14.1774
    -9.8131  -9.7696  -9.7154  -9.6894  -9.6526  -9.6343  -9.5947  -9.5824
    -9.4904  -9.4584  -9.4082  -9.3753  -9.3340  -9.3181  -9.2746  -9.2464
    -9.2223  -9.1904  -9.1722  -9.1460  -9.1157  -9.1079  -9.0821  -9.0616
    -9.0452  -9.0164  -9.0015  -8.9777  -8.9631  -8.9464  -8.8906  -8.8520
    -7.8048  -7.7190  -7.6952  -7.6701  -7.6593  -7.6374  -7.6304  -7.6189
    -7.0966  -7.0815  -7.0709  -7.0277  -7.0196  -6.9988  -6.9904  -6.9205
    -5.8775  -5.4909  -5.4680  -5.4266  -5.4015  -5.3503  -5.3418  -5.3314
    -5.3158  -5.2986  -5.2876  -5.2664  -5.0376  -4.9898  -4.9786  -4.5885
    -3.8886  -3.8521  -3.8413  -3.8136  -3.7956  -3.7866  -3.7637  -3.7500
    -3.3294  -3.3062  -3.2989  -3.2577  -3.2564  -3.2446  -3.2271  -3.1896
    -0.8971  -0.8316  -0.8056  -0.7576  -0.7311  -0.7149  -0.6850  -0.6583
    -0.6201  -0.5946  -0.5344  -0.4953  -0.1861  -0.1587  -0.1225  -0.1087
    -0.0755  -0.0441  -0.0143   0.0194   0.3547   0.4276   0.4483   0.4812
     0.4987   0.5136   0.5325   0.5630   0.5841   0.6459   0.6877   0.7430
     0.7679   0.7937   0.8396   0.8648   0.8974   0.9290   0.9514   0.9613
     0.9800   1.0061   1.0110   1.0290   1.0592   1.0767   1.1006   1.1098
     1.1226   1.1495   1.1716   1.1797   1.1992   1.2133   1.2254   1.2567
     1.2663   1.2832   1.2935   1.3062   1.3244   1.3415   1.3598   1.4010
     1.4295   1.4508   1.4566   1.4794   1.5070   1.5317   1.5765   1.5995
     1.6721   1.6979   1.7139   1.7664   1.7841   1.8356   1.8630   2.0977

          k =-0.1250-0.1234 0.3752 (310111 PWs)   bands (ev):

   -17.9578 -17.8965 -17.8844 -17.8580 -17.8470 -17.8328 -17.8210 -17.7950
   -15.7311 -15.7060 -15.6718 -15.6326 -15.6231 -15.6019 -15.5979 -15.5465
   -14.3371 -14.3280 -14.2997 -14.2961 -14.2901 -14.2899 -14.2849 -14.2786
   -14.2690 -14.2578 -14.2537 -14.2529 -14.2513 -14.2495 -14.2491 -14.2481
   -14.2404 -14.2398 -14.2392 -14.2390 -14.2360 -14.2329 -14.2242 -14.2231
   -14.2210 -14.2184 -14.2182 -14.2160 -14.2149 -14.2147 -14.2142 -14.2100
   -14.1995 -14.1994 -14.1976 -14.1906 -14.1894 -14.1874 -14.1836 -14.1774
    -9.7935  -9.7637  -9.7158  -9.6853  -9.6592  -9.6513  -9.6218  -9.5857
    -9.4890  -9.4373  -9.4073  -9.3739  -9.3422  -9.3182  -9.2945  -9.2583
    -9.2322  -9.1967  -9.1524  -9.1222  -9.1070  -9.0857  -9.0721  -9.0527
    -9.0406  -9.0203  -9.0026  -8.9902  -8.9754  -8.9490  -8.8985  -8.8539
    -7.8049  -7.7190  -7.6944  -7.6707  -7.6586  -7.6373  -7.6316  -7.6191
    -7.0967  -7.0814  -7.0709  -7.0278  -7.0195  -6.9989  -6.9905  -6.9204
    -5.7624  -5.5867  -5.4833  -5.3617  -5.3527  -5.3417  -5.3274  -5.3234
    -5.3109  -5.2904  -5.2787  -5.2510  -5.1527  -5.1161  -4.8954  -4.7185
    -3.8876  -3.8517  -3.8393  -3.8167  -3.7960  -3.7850  -3.7651  -3.7504
    -3.3293  -3.3055  -3.2990  -3.2577  -3.2562  -3.2451  -3.2275  -3.1897
    -0.8600  -0.8049  -0.7415  -0.7136  -0.6699  -0.6417  -0.6126  -0.5572
    -0.4362  -0.3783  -0.3067  -0.2214  -0.1549  -0.1338  -0.1232  -0.0996
    -0.0644  -0.0467  -0.0251   0.0243   0.1472   0.2346   0.2893   0.3787
     0.4068   0.4407   0.4518   0.5006   0.5207   0.5599   0.5736   0.5972
     0.6343   0.6942   0.8229   0.8375   0.8756   0.9132   0.9314   0.9508
     0.9756   0.9890   1.0042   1.0236   1.0632   1.0748   1.1010   1.1057
     1.1411   1.1481   1.1747   1.1896   1.2148   1.2227   1.2461   1.2649
     1.2748   1.2859   1.2994   1.3122   1.3403   1.3553   1.3719   1.3890
     1.4145   1.4371   1.4413   1.4802   1.5037   1.5308   1.5437   1.5568
     1.6309   1.6535   1.6691   1.6849   1.7473   1.7673   1.8352   1.9693

          k =-0.1250 0.1234-0.3752 (310111 PWs)   bands (ev):

   -17.9578 -17.8965 -17.8844 -17.8580 -17.8470 -17.8328 -17.8210 -17.7950
   -15.7311 -15.7060 -15.6718 -15.6326 -15.6231 -15.6019 -15.5979 -15.5465
   -14.3371 -14.3280 -14.2997 -14.2961 -14.2901 -14.2899 -14.2849 -14.2786
   -14.2690 -14.2578 -14.2537 -14.2529 -14.2513 -14.2495 -14.2491 -14.2481
   -14.2404 -14.2398 -14.2392 -14.2390 -14.2360 -14.2329 -14.2242 -14.2231
   -14.2210 -14.2184 -14.2182 -14.2160 -14.2149 -14.2147 -14.2142 -14.2100
   -14.1995 -14.1994 -14.1976 -14.1906 -14.1894 -14.1874 -14.1836 -14.1774
    -9.7945  -9.7632  -9.7153  -9.6867  -9.6605  -9.6490  -9.6202  -9.5869
    -9.4769  -9.4499  -9.4100  -9.3719  -9.3452  -9.3163  -9.2892  -9.2638
    -9.2300  -9.2010  -9.1496  -9.1226  -9.0979  -9.0866  -9.0778  -9.0533
    -9.0413  -9.0233  -8.9970  -8.9903  -8.9747  -8.9514  -8.8980  -8.8543
    -7.8047  -7.7190  -7.6944  -7.6706  -7.6582  -7.6379  -7.6315  -7.6195
    -7.0966  -7.0815  -7.0708  -7.0278  -7.0195  -6.9988  -6.9905  -6.9204
    -5.7620  -5.5880  -5.4827  -5.3693  -5.3505  -5.3391  -5.3307  -5.3195
    -5.3093  -5.2891  -5.2736  -5.2541  -5.1561  -5.1135  -4.8964  -4.7190
    -3.8875  -3.8516  -3.8395  -3.8164  -3.7963  -3.7850  -3.7651  -3.7504
    -3.3292  -3.3056  -3.2985  -3.2584  -3.2561  -3.2449  -3.2274  -3.1897
    -0.8389  -0.7904  -0.7557  -0.7200  -0.6726  -0.6360  -0.6290  -0.5594
    -0.4412  -0.3852  -0.3049  -0.2235  -0.1608  -0.1410  -0.1198  -0.0998
    -0.0586  -0.0379  -0.0297   0.0205   0.1513   0.2410   0.2915   0.3785
     0.4132   0.4340   0.4517   0.5067   0.5234   0.5569   0.5722   0.5937
     0.6508   0.6905   0.8219   0.8458   0.8865   0.9095   0.9341   0.9435
     0.9782   0.9948   1.0222   1.0303   1.0506   1.0596   1.0861   1.1009
     1.1247   1.1429   1.1806   1.1907   1.2206   1.2375   1.2425   1.2539
     1.2770   1.2829   1.3026   1.3124   1.3342   1.3489   1.3623   1.3945
     1.4178   1.4363   1.4508   1.4769   1.5113   1.5273   1.5508   1.5647
     1.6383   1.6640   1.6684   1.6930   1.7469   1.7720   1.8131   1.9433

          k = 0.1250-0.1234-0.3752 (310111 PWs)   bands (ev):

   -17.9578 -17.8965 -17.8844 -17.8580 -17.8470 -17.8328 -17.8210 -17.7950
   -15.7311 -15.7060 -15.6718 -15.6326 -15.6231 -15.6019 -15.5979 -15.5465
   -14.3371 -14.3280 -14.2997 -14.2961 -14.2901 -14.2899 -14.2849 -14.2786
   -14.2690 -14.2578 -14.2537 -14.2529 -14.2513 -14.2495 -14.2491 -14.2481
   -14.2404 -14.2398 -14.2392 -14.2390 -14.2360 -14.2329 -14.2242 -14.2231
   -14.2210 -14.2184 -14.2182 -14.2160 -14.2149 -14.2147 -14.2142 -14.2100
   -14.1995 -14.1994 -14.1976 -14.1906 -14.1894 -14.1874 -14.1836 -14.1774
    -9.7935  -9.7624  -9.7174  -9.6859  -9.6603  -9.6493  -9.6217  -9.5879
    -9.4859  -9.4322  -9.4076  -9.3757  -9.3461  -9.3245  -9.2802  -9.2612
    -9.2416  -9.1973  -9.1505  -9.1141  -9.1089  -9.0868  -9.0768  -9.0531
    -9.0405  -9.0185  -8.9991  -8.9901  -8.9752  -8.9516  -8.8981  -8.8543
    -7.8048  -7.7190  -7.6944  -7.6705  -7.6586  -7.6374  -7.6317  -7.6192
    -7.0966  -7.0814  -7.0709  -7.0278  -7.0195  -6.9988  -6.9905  -6.9204
    -5.7627  -5.5873  -5.4831  -5.3650  -5.3479  -5.3405  -5.3290  -5.3203
    -5.3085  -5.2920  -5.2770  -5.2597  -5.1506  -5.1143  -4.8964  -4.7190
    -3.8875  -3.8514  -3.8399  -3.8163  -3.7962  -3.7850  -3.7652  -3.7503
    -3.3293  -3.3059  -3.2986  -3.2581  -3.2562  -3.2447  -3.2274  -3.1895
    -0.8408  -0.7911  -0.7527  -0.7222  -0.6758  -0.6405  -0.6257  -0.5600
    -0.4291  -0.3846  -0.3021  -0.2230  -0.1647  -0.1392  -0.1241  -0.0985
    -0.0622  -0.0431  -0.0244   0.0213   0.1521   0.2264   0.2989   0.3799
     0.4133   0.4423   0.4504   0.5075   0.5257   0.5556   0.5728   0.5973
     0.6433   0.6925   0.8129   0.8388   0.8889   0.9160   0.9305   0.9484
     0.9746   0.9960   1.0095   1.0219   1.0464   1.0790   1.0989   1.1141
     1.1215   1.1452   1.1707   1.1916   1.2198   1.2279   1.2386   1.2431
     1.2781   1.2893   1.3122   1.3252   1.3340   1.3548   1.3595   1.3929
     1.4116   1.4366   1.4511   1.4804   1.5098   1.5235   1.5462   1.5663
     1.6324   1.6598   1.6702   1.6941   1.7504   1.7712   1.8135   1.9452

          k =-0.1250-0.3703 0.1251 (310061 PWs)   bands (ev):

   -17.9578 -17.8965 -17.8844 -17.8580 -17.8470 -17.8328 -17.8209 -17.7950
   -15.7311 -15.7060 -15.6718 -15.6326 -15.6232 -15.6018 -15.5978 -15.5465
   -14.3372 -14.3278 -14.2997 -14.2961 -14.2901 -14.2899 -14.2848 -14.2785
   -14.2691 -14.2581 -14.2538 -14.2526 -14.2513 -14.2495 -14.2493 -14.2482
   -14.2404 -14.2399 -14.2391 -14.2387 -14.2360 -14.2326 -14.2242 -14.2223
   -14.2210 -14.2182 -14.2179 -14.2160 -14.2157 -14.2149 -14.2145 -14.2100
   -14.1995 -14.1994 -14.1976 -14.1906 -14.1894 -14.1874 -14.1836 -14.1774
    -9.8060  -9.7772  -9.7096  -9.6918  -9.6530  -9.6352  -9.5938  -9.5816
    -9.4803  -9.4457  -9.4033  -9.3814  -9.3587  -9.3217  -9.3039  -9.2777
    -9.2216  -9.1793  -9.1639  -9.1428  -9.1077  -9.0858  -9.0661  -9.0473
    -9.0383  -9.0243  -9.0018  -8.9756  -8.9662  -8.9430  -8.8960  -8.8693
    -7.8039  -7.7182  -7.6955  -7.6671  -7.6597  -7.6402  -7.6288  -7.6204
    -7.0965  -7.0814  -7.0708  -7.0271  -7.0198  -6.9994  -6.9904  -6.9205
    -5.7628  -5.5617  -5.4839  -5.3611  -5.3575  -5.3458  -5.3380  -5.3194
    -5.3079  -5.2965  -5.2801  -5.2525  -5.1477  -5.1137  -4.9047  -4.7303
    -3.8870  -3.8522  -3.8414  -3.8132  -3.7959  -3.7872  -3.7638  -3.7503
    -3.3295  -3.3042  -3.3002  -3.2570  -3.2551  -3.2471  -3.2273  -3.1899
    -0.8940  -0.8365  -0.7346  -0.7067  -0.6812  -0.6334  -0.5761  -0.5350
    -0.3849  -0.3518  -0.2858  -0.2037  -0.1544  -0.1280  -0.1176  -0.1020
    -0.0794  -0.0589  -0.0160   0.0149   0.1999   0.2503   0.3290   0.3626
     0.3949   0.4721   0.4975   0.5148   0.5165   0.5323   0.5595   0.6239
     0.6572   0.6921   0.7445   0.7793   0.8265   0.8622   0.9067   0.9410
     0.9560   1.0038   1.0188   1.0453   1.0529   1.0655   1.0829   1.1103
     1.1277   1.1469   1.1826   1.1906   1.2148   1.2275   1.2463   1.2544
     1.2880   1.2995   1.3091   1.3179   1.3284   1.3510   1.3849   1.4114
     1.4218   1.4302   1.4575   1.4693   1.5018   1.5182   1.5237   1.5575
     1.5961   1.6119   1.6458   1.6938   1.7166   1.7302   1.8585   1.9317

          k =-0.1250 0.3703-0.1251 (310061 PWs)   bands (ev):

   -17.9578 -17.8965 -17.8844 -17.8580 -17.8470 -17.8328 -17.8209 -17.7950
   -15.7311 -15.7060 -15.6718 -15.6326 -15.6232 -15.6018 -15.5978 -15.5465
   -14.3372 -14.3278 -14.2997 -14.2961 -14.2901 -14.2899 -14.2848 -14.2785
   -14.2691 -14.2581 -14.2538 -14.2526 -14.2513 -14.2495 -14.2493 -14.2482
   -14.2404 -14.2399 -14.2391 -14.2387 -14.2360 -14.2326 -14.2242 -14.2223
   -14.2210 -14.2182 -14.2179 -14.2160 -14.2157 -14.2149 -14.2145 -14.2100
   -14.1995 -14.1994 -14.1976 -14.1906 -14.1894 -14.1874 -14.1836 -14.1774
    -9.8068  -9.7769  -9.7122  -9.6893  -9.6515  -9.6346  -9.5929  -9.5837
    -9.4734  -9.4448  -9.4109  -9.3841  -9.3606  -9.3188  -9.3066  -9.2783
    -9.2179  -9.1759  -9.1637  -9.1442  -9.1118  -9.0773  -9.0681  -9.0525
    -9.0383  -9.0222  -9.0028  -8.9764  -8.9631  -8.9439  -8.8956  -8.8701
    -7.8038  -7.7181  -7.6956  -7.6668  -7.6597  -7.6403  -7.6289  -7.6207
    -7.0964  -7.0815  -7.0707  -7.0271  -7.0198  -6.9994  -6.9904  -6.9206
    -5.7627  -5.5623  -5.4841  -5.3671  -5.3578  -5.3434  -5.3365  -5.3208
    -5.3084  -5.2934  -5.2769  -5.2500  -5.1488  -5.1160  -4.9040  -4.7315
    -3.8869  -3.8518  -3.8420  -3.8131  -3.7956  -3.7875  -3.7638  -3.7503
    -3.3294  -3.3044  -3.2997  -3.2570  -3.2559  -3.2468  -3.2273  -3.1900
    -0.8782  -0.8468  -0.7212  -0.7036  -0.6912  -0.6329  -0.5718  -0.5337
    -0.3921  -0.3638  -0.2964  -0.2132  -0.1567  -0.1413  -0.1233  -0.1006
    -0.0782  -0.0576  -0.0158   0.0168   0.2127   0.2702   0.3390   0.3657
     0.4128   0.4737   0.4916   0.5051   0.5248   0.5332   0.5569   0.6248
     0.6443   0.7022   0.7398   0.7776   0.8336   0.8555   0.9151   0.9341
     0.9672   0.9927   1.0033   1.0288   1.0570   1.0801   1.0950   1.1082
     1.1317   1.1417   1.1837   1.1966   1.2129   1.2322   1.2410   1.2585
     1.2720   1.2874   1.3019   1.3283   1.3389   1.3517   1.3857   1.4119
     1.4220   1.4314   1.4459   1.4763   1.5008   1.5156   1.5293   1.5714
     1.5810   1.6163   1.6417   1.6976   1.7134   1.7328   1.8648   1.9128

          k = 0.1250-0.3703-0.1251 (310061 PWs)   bands (ev):

   -17.9578 -17.8965 -17.8844 -17.8580 -17.8470 -17.8328 -17.8209 -17.7950
   -15.7311 -15.7060 -15.6718 -15.6326 -15.6232 -15.6018 -15.5978 -15.5465
   -14.3372 -14.3278 -14.2997 -14.2961 -14.2901 -14.2899 -14.2848 -14.2785
   -14.2691 -14.2581 -14.2538 -14.2526 -14.2513 -14.2495 -14.2493 -14.2482
   -14.2404 -14.2399 -14.2391 -14.2387 -14.2360 -14.2326 -14.2242 -14.2223
   -14.2210 -14.2182 -14.2179 -14.2160 -14.2157 -14.2149 -14.2145 -14.2100
   -14.1995 -14.1994 -14.1976 -14.1906 -14.1894 -14.1874 -14.1836 -14.1774
    -9.8068  -9.7756  -9.7123  -9.6902  -9.6532  -9.6341  -9.5932  -9.5841
    -9.4791  -9.4376  -9.4103  -9.3888  -9.3526  -9.3148  -9.3073  -9.2784
    -9.2253  -9.1878  -9.1551  -9.1418  -9.1081  -9.0840  -9.0644  -9.0564
    -9.0365  -9.0210  -9.0011  -8.9759  -8.9640  -8.9440  -8.8959  -8.8701
    -7.8039  -7.7182  -7.6956  -7.6667  -7.6601  -7.6401  -7.6291  -7.6203
    -7.0964  -7.0814  -7.0708  -7.0271  -7.0198  -6.9994  -6.9904  -6.9206
    -5.7631  -5.5621  -5.4845  -5.3702  -5.3535  -5.3414  -5.3341  -5.3183
    -5.3034  -5.2986  -5.2799  -5.2576  -5.1473  -5.1139  -4.9044  -4.7312
    -3.8869  -3.8518  -3.8421  -3.8130  -3.7957  -3.7874  -3.7638  -3.7502
    -3.3295  -3.3047  -3.2998  -3.2571  -3.2556  -3.2466  -3.2272  -3.1898
    -0.8927  -0.8305  -0.7291  -0.7108  -0.6770  -0.6312  -0.5760  -0.5300
    -0.3928  -0.3599  -0.2948  -0.2126  -0.1699  -0.1421  -0.1297  -0.0943
    -0.0820  -0.0529  -0.0137   0.0178   0.2155   0.2701   0.3387   0.3639
     0.4135   0.4814   0.4880   0.5068   0.5199   0.5374   0.5623   0.6255
     0.6584   0.6901   0.7299   0.7715   0.8415   0.8467   0.9104   0.9365
     0.9620   0.9938   1.0242   1.0305   1.0454   1.0654   1.0995   1.1125
     1.1365   1.1495   1.1696   1.1913   1.2047   1.2314   1.2426   1.2623
     1.2764   1.2998   1.3141   1.3235   1.3418   1.3482   1.3714   1.4144
     1.4225   1.4383   1.4495   1.4838   1.4937   1.5092   1.5411   1.5579
     1.5875   1.6098   1.6470   1.6987   1.7090   1.7294   1.8630   1.9175

          k =-0.1250-0.3703 0.3752 (310177 PWs)   bands (ev):

   -17.9578 -17.8965 -17.8844 -17.8580 -17.8470 -17.8328 -17.8210 -17.7950
   -15.7311 -15.7060 -15.6718 -15.6326 -15.6231 -15.6019 -15.5979 -15.5465
   -14.3371 -14.3278 -14.2997 -14.2961 -14.2901 -14.2899 -14.2845 -14.2782
   -14.2689 -14.2580 -14.2538 -14.2531 -14.2513 -14.2495 -14.2491 -14.2485
   -14.2404 -14.2399 -14.2390 -14.2389 -14.2360 -14.2328 -14.2242 -14.2226
   -14.2210 -14.2182 -14.2180 -14.2160 -14.2157 -14.2149 -14.2145 -14.2100
   -14.1995 -14.1994 -14.1976 -14.1906 -14.1894 -14.1874 -14.1836 -14.1774
    -9.7893  -9.7661  -9.7131  -9.6849  -9.6593  -9.6529  -9.6210  -9.5860
    -9.4766  -9.4322  -9.4033  -9.3833  -9.3477  -9.3307  -9.3128  -9.2798
    -9.2486  -9.1681  -9.1550  -9.1176  -9.0939  -9.0794  -9.0651  -9.0510
    -9.0366  -9.0195  -8.9995  -8.9853  -8.9759  -8.9366  -8.9060  -8.8723
    -7.8039  -7.7182  -7.6947  -7.6679  -7.6585  -7.6402  -7.6305  -7.6203
    -7.0965  -7.0814  -7.0709  -7.0272  -7.0197  -6.9994  -6.9905  -6.9205
    -5.6516  -5.4992  -5.4759  -5.4457  -5.3522  -5.3475  -5.3338  -5.3263
    -5.2994  -5.2898  -5.2632  -5.2444  -5.2116  -5.0518  -5.0132  -4.8586
    -3.8861  -3.8513  -3.8399  -3.8149  -3.7971  -3.7855  -3.7652  -3.7503
    -3.3295  -3.3041  -3.3001  -3.2569  -3.2556  -3.2472  -3.2275  -3.1900
    -0.8482  -0.7263  -0.6611  -0.5914  -0.4610  -0.4219  -0.3641  -0.3351
    -0.3222  -0.2851  -0.2452  -0.2314  -0.1358  -0.1204  -0.1136  -0.0953
    -0.0601  -0.0448  -0.0238   0.0211   0.1187   0.1811   0.2306   0.2555
     0.2922   0.3342   0.3606   0.4052   0.4404   0.5182   0.5323   0.5683
     0.6133   0.6576   0.7218   0.7323   0.7745   0.8235   0.8422   0.8612
     0.8836   0.9104   0.9636   0.9898   1.0104   1.0398   1.0670   1.0946
     1.1322   1.1519   1.1623   1.1933   1.2075   1.2269   1.2544   1.2730
     1.2995   1.3079   1.3222   1.3477   1.3526   1.3603   1.3836   1.3962
     1.4147   1.4299   1.4541   1.4738   1.4918   1.5025   1.5174   1.5531
     1.5727   1.5967   1.6229   1.6519   1.6700   1.6924   1.7401   1.8139

          k =-0.1250 0.3703-0.3752 (310177 PWs)   bands (ev):

   -17.9578 -17.8965 -17.8844 -17.8580 -17.8470 -17.8328 -17.8210 -17.7950
   -15.7311 -15.7060 -15.6718 -15.6326 -15.6231 -15.6019 -15.5979 -15.5465
   -14.3371 -14.3278 -14.2997 -14.2961 -14.2901 -14.2899 -14.2845 -14.2782
   -14.2689 -14.2580 -14.2538 -14.2531 -14.2513 -14.2495 -14.2491 -14.2485
   -14.2404 -14.2399 -14.2390 -14.2389 -14.2360 -14.2328 -14.2242 -14.2226
   -14.2210 -14.2182 -14.2180 -14.2160 -14.2157 -14.2149 -14.2145 -14.2100
   -14.1995 -14.1994 -14.1976 -14.1906 -14.1894 -14.1874 -14.1836 -14.1774
    -9.7894  -9.7668  -9.7136  -9.6854  -9.6576  -9.6523  -9.6203  -9.5880
    -9.4638  -9.4377  -9.4112  -9.3746  -9.3560  -9.3375  -9.3104  -9.2795
    -9.2468  -9.1642  -9.1528  -9.1192  -9.0957  -9.0775  -9.0631  -9.0551
    -9.0381  -9.0149  -9.0022  -8.9873  -8.9714  -8.9387  -8.9054  -8.8728
    -7.8038  -7.7181  -7.6948  -7.6677  -7.6582  -7.6406  -7.6305  -7.6207
    -7.0964  -7.0815  -7.0708  -7.0272  -7.0197  -6.9993  -6.9905  -6.9205
    -5.6511  -5.5034  -5.4729  -5.4463  -5.3530  -5.3457  -5.3342  -5.3271
    -5.3005  -5.2875  -5.2640  -5.2442  -5.2088  -5.0521  -5.0136  -4.8600
    -3.8860  -3.8511  -3.8402  -3.8147  -3.7973  -3.7856  -3.7652  -3.7502
    -3.3294  -3.3043  -3.2995  -3.2570  -3.2562  -3.2469  -3.2275  -3.1901
    -0.8404  -0.7171  -0.6594  -0.5846  -0.4700  -0.4251  -0.3768  -0.3398
    -0.3280  -0.2938  -0.2471  -0.2374  -0.1521  -0.1176  -0.1112  -0.0893
    -0.0560  -0.0491  -0.0260   0.0165   0.1220   0.1889   0.2468   0.2688
     0.3042   0.3369   0.3735   0.3938   0.4392   0.5083   0.5285   0.5634
     0.6231   0.6693   0.7229   0.7381   0.7805   0.7994   0.8461   0.8710
     0.8880   0.9074   0.9650   0.9896   1.0114   1.0242   1.0583   1.0925
     1.1158   1.1448   1.1856   1.1893   1.2192   1.2324   1.2540   1.2649
     1.2913   1.2975   1.3299   1.3425   1.3541   1.3672   1.3868   1.3961
     1.4184   1.4311   1.4563   1.4733   1.4859   1.5141   1.5211   1.5502
     1.5725   1.5911   1.6214   1.6578   1.6766   1.6970   1.7356   1.7905

          k = 0.1250-0.3703-0.3752 (310177 PWs)   bands (ev):

   -17.9578 -17.8965 -17.8844 -17.8580 -17.8470 -17.8328 -17.8210 -17.7950
   -15.7311 -15.7060 -15.6718 -15.6326 -15.6231 -15.6019 -15.5979 -15.5465
   -14.3371 -14.3278 -14.2997 -14.2961 -14.2901 -14.2899 -14.2845 -14.2782
   -14.2689 -14.2580 -14.2538 -14.2531 -14.2513 -14.2495 -14.2491 -14.2485
   -14.2404 -14.2399 -14.2390 -14.2389 -14.2360 -14.2328 -14.2242 -14.2226
   -14.2210 -14.2182 -14.2180 -14.2160 -14.2157 -14.2149 -14.2145 -14.2100
   -14.1995 -14.1994 -14.1976 -14.1906 -14.1894 -14.1874 -14.1836 -14.1774
    -9.7895  -9.7648  -9.7148  -9.6856  -9.6606  -9.6507  -9.6207  -9.5882
    -9.4720  -9.4254  -9.4092  -9.3842  -9.3522  -9.3315  -9.3018  -9.2852
    -9.2558  -9.1681  -9.1496  -9.1194  -9.0882  -9.0827  -9.0709  -9.0489
    -9.0368  -9.0174  -8.9999  -8.9832  -8.9756  -8.9378  -8.9062  -8.8725
    -7.8039  -7.7182  -7.6948  -7.6676  -7.6586  -7.6402  -7.6306  -7.6204
    -7.0964  -7.0814  -7.0709  -7.0272  -7.0197  -6.9993  -6.9905  -6.9205
    -5.6522  -5.5023  -5.4841  -5.4249  -5.3591  -5.3441  -5.3342  -5.3223
    -5.3114  -5.2908  -5.2736  -5.2340  -5.2056  -5.0499  -5.0163  -4.8595
    -3.8860  -3.8511  -3.8404  -3.8145  -3.7974  -3.7855  -3.7653  -3.7502
    -3.3295  -3.3047  -3.2995  -3.2571  -3.2560  -3.2467  -3.2275  -3.1899
    -0.8419  -0.7184  -0.6605  -0.5888  -0.4659  -0.4224  -0.3709  -0.3429
    -0.3024  -0.2892  -0.2613  -0.2385  -0.1604  -0.1326  -0.1143  -0.0888
    -0.0664  -0.0507  -0.0222   0.0193   0.1281   0.2041   0.2489   0.2864
     0.3102   0.3331   0.3531   0.3841   0.4414   0.5071   0.5337   0.5685
     0.6234   0.6647   0.7098   0.7448   0.7630   0.8130   0.8428   0.8560
     0.8934   0.9346   0.9441   0.9943   1.0131   1.0208   1.0694   1.1012
     1.1128   1.1457   1.1715   1.1912   1.2108   1.2236   1.2635   1.2709
     1.2926   1.3099   1.3193   1.3489   1.3572   1.3679   1.3883   1.4005
     1.4127   1.4224   1.4601   1.4744   1.4838   1.5115   1.5288   1.5552
     1.5709   1.5864   1.6228   1.6501   1.6710   1.6958   1.7369   1.7958

          k =-0.3750-0.1234 0.1251 (310118 PWs)   bands (ev):

   -17.9577 -17.8965 -17.8845 -17.8580 -17.8470 -17.8328 -17.8210 -17.7950
   -15.7276 -15.7096 -15.6718 -15.6326 -15.6232 -15.6017 -15.5979 -15.5465
   -14.3370 -14.3279 -14.2997 -14.2961 -14.2905 -14.2900 -14.2851 -14.2788
   -14.2690 -14.2579 -14.2537 -14.2523 -14.2513 -14.2494 -14.2483 -14.2477
   -14.2409 -14.2404 -14.2390 -14.2387 -14.2360 -14.2320 -14.2242 -14.2231
   -14.2210 -14.2186 -14.2182 -14.2160 -14.2149 -14.2149 -14.2145 -14.2100
   -14.1995 -14.1994 -14.1976 -14.1906 -14.1894 -14.1874 -14.1836 -14.1774
    -9.7850  -9.7470  -9.7283  -9.7072  -9.6793  -9.6334  -9.5979  -9.5870
    -9.5014  -9.4592  -9.3933  -9.3615  -9.3437  -9.3252  -9.2877  -9.2348
    -9.2211  -9.1875  -9.1653  -9.1575  -9.1254  -9.1091  -9.0874  -9.0518
    -9.0202  -9.0114  -8.9871  -8.9787  -8.9542  -8.9325  -8.9148  -8.8722
    -7.8023  -7.7234  -7.6952  -7.6701  -7.6596  -7.6383  -7.6306  -7.6190
    -7.0954  -7.0815  -7.0706  -7.0274  -7.0195  -6.9993  -6.9899  -6.9205
    -5.7589  -5.5788  -5.4561  -5.3716  -5.3622  -5.3472  -5.3321  -5.3164
    -5.3057  -5.2936  -5.2819  -5.2556  -5.1611  -5.1153  -4.8923  -4.7251
    -3.8892  -3.8510  -3.8412  -3.8140  -3.7945  -3.7878  -3.7643  -3.7504
    -3.3286  -3.3043  -3.3000  -3.2580  -3.2544  -3.2427  -3.2311  -3.1916
    -0.8585  -0.8053  -0.7622  -0.7419  -0.6954  -0.6542  -0.6348  -0.5835
    -0.4390  -0.3262  -0.2596  -0.2082  -0.1567  -0.1326  -0.1044  -0.0896
    -0.0631  -0.0343  -0.0190   0.0158   0.1268   0.2432   0.3359   0.3966
     0.4346   0.4499   0.4757   0.5129   0.5324   0.5590   0.5748   0.6191
     0.6388   0.7244   0.7824   0.8212   0.8493   0.8818   0.9121   0.9333
     0.9767   0.9884   1.0064   1.0214   1.0495   1.0699   1.1010   1.1183
     1.1341   1.1517   1.1686   1.1849   1.2098   1.2296   1.2395   1.2546
     1.2799   1.2868   1.3048   1.3237   1.3318   1.3623   1.3998   1.4142
     1.4313   1.4585   1.4690   1.4888   1.5033   1.5208   1.5494   1.5862
     1.6075   1.6260   1.6474   1.6608   1.7060   1.7339   1.8284   1.9165

          k =-0.3750 0.1234-0.1251 (310118 PWs)   bands (ev):

   -17.9577 -17.8965 -17.8845 -17.8580 -17.8470 -17.8328 -17.8210 -17.7950
   -15.7276 -15.7096 -15.6718 -15.6326 -15.6232 -15.6017 -15.5979 -15.5465
   -14.3370 -14.3279 -14.2997 -14.2961 -14.2905 -14.2900 -14.2851 -14.2788
   -14.2690 -14.2579 -14.2537 -14.2523 -14.2513 -14.2494 -14.2483 -14.2477
   -14.2409 -14.2404 -14.2390 -14.2387 -14.2360 -14.2320 -14.2242 -14.2231
   -14.2210 -14.2186 -14.2182 -14.2160 -14.2149 -14.2149 -14.2145 -14.2100
   -14.1995 -14.1994 -14.1976 -14.1906 -14.1894 -14.1874 -14.1836 -14.1774
    -9.7862  -9.7472  -9.7306  -9.7032  -9.6792  -9.6328  -9.5967  -9.5882
    -9.4972  -9.4605  -9.4001  -9.3690  -9.3473  -9.3153  -9.2800  -9.2328
    -9.2169  -9.2026  -9.1686  -9.1566  -9.1162  -9.1036  -9.0925  -9.0522
    -9.0280  -9.0081  -8.9874  -8.9736  -8.9558  -8.9340  -8.9126  -8.8736
    -7.8022  -7.7234  -7.6953  -7.6699  -7.6594  -7.6386  -7.6306  -7.6193
    -7.0953  -7.0815  -7.0705  -7.0274  -7.0195  -6.9992  -6.9899  -6.9205
    -5.7585  -5.5804  -5.4565  -5.3708  -5.3653  -5.3513  -5.3315  -5.3168
    -5.3022  -5.2942  -5.2707  -5.2558  -5.1648  -5.1174  -4.8917  -4.7261
    -3.8891  -3.8506  -3.8420  -3.8136  -3.7945  -3.7879  -3.7643  -3.7504
    -3.3285  -3.3044  -3.2996  -3.2578  -3.2551  -3.2426  -3.2309  -3.1917
    -0.8540  -0.7942  -0.7611  -0.7481  -0.6785  -0.6550  -0.6356  -0.5883
    -0.4618  -0.3366  -0.2696  -0.2011  -0.1646  -0.1412  -0.1152  -0.0893
    -0.0613  -0.0255  -0.0181   0.0115   0.1413   0.2647   0.3398   0.3959
     0.4400   0.4513   0.4773   0.5019   0.5375   0.5530   0.5780   0.6273
     0.6591   0.7148   0.7807   0.8187   0.8547   0.8794   0.9079   0.9279
     0.9698   0.9978   1.0095   1.0232   1.0483   1.0724   1.0792   1.1108
     1.1422   1.1624   1.1741   1.1921   1.1996   1.2196   1.2394   1.2549
     1.2655   1.2864   1.3069   1.3148   1.3453   1.3712   1.3873   1.4125
     1.4365   1.4436   1.4674   1.4886   1.5138   1.5368   1.5663   1.5821
     1.5954   1.6311   1.6561   1.6710   1.6895   1.7245   1.8415   1.8928

          k = 0.3750-0.1234-0.1251 (310118 PWs)   bands (ev):

   -17.9577 -17.8965 -17.8845 -17.8580 -17.8470 -17.8328 -17.8210 -17.7950
   -15.7276 -15.7096 -15.6718 -15.6326 -15.6232 -15.6017 -15.5979 -15.5465
   -14.3370 -14.3279 -14.2997 -14.2961 -14.2905 -14.2900 -14.2851 -14.2788
   -14.2690 -14.2579 -14.2537 -14.2523 -14.2513 -14.2494 -14.2483 -14.2477
   -14.2409 -14.2404 -14.2390 -14.2387 -14.2360 -14.2320 -14.2242 -14.2231
   -14.2210 -14.2186 -14.2182 -14.2160 -14.2149 -14.2149 -14.2145 -14.2100
   -14.1995 -14.1994 -14.1976 -14.1906 -14.1894 -14.1874 -14.1836 -14.1774
    -9.7849  -9.7452  -9.7318  -9.7051  -9.6805  -9.6329  -9.5974  -9.5887
    -9.4975  -9.4585  -9.3941  -9.3682  -9.3495  -9.3116  -9.2811  -9.2536
    -9.2076  -9.1966  -9.1695  -9.1545  -9.1175  -9.1035  -9.0936  -9.0578
    -9.0219  -9.0056  -8.9872  -8.9755  -8.9588  -8.9296  -8.9158  -8.8729
    -7.8023  -7.7234  -7.6953  -7.6699  -7.6597  -7.6384  -7.6306  -7.6190
    -7.0953  -7.0815  -7.0706  -7.0274  -7.0195  -6.9992  -6.9899  -6.9205
    -5.7589  -5.5800  -5.4569  -5.3715  -5.3656  -5.3462  -5.3355  -5.3117
    -5.3033  -5.2936  -5.2708  -5.2616  -5.1628  -5.1182  -4.8911  -4.7262
    -3.8891  -3.8506  -3.8422  -3.8134  -3.7948  -3.7877  -3.7644  -3.7504
    -3.3286  -3.3047  -3.2996  -3.2580  -3.2547  -3.2424  -3.2310  -3.1915
    -0.8597  -0.7905  -0.7615  -0.7482  -0.6766  -0.6578  -0.6392  -0.5803
    -0.4604  -0.3358  -0.2692  -0.2042  -0.1666  -0.1357  -0.1146  -0.0884
    -0.0664  -0.0282  -0.0149   0.0122   0.1389   0.2658   0.3389   0.3998
     0.4366   0.4553   0.4772   0.5005   0.5378   0.5541   0.5903   0.6072
     0.6493   0.7077   0.8027   0.8232   0.8624   0.8839   0.9089   0.9392
     0.9526   0.9906   1.0043   1.0113   1.0494   1.0542   1.1019   1.1256
     1.1344   1.1584   1.1730   1.1798   1.2021   1.2200   1.2401   1.2501
     1.2812   1.2895   1.3048   1.3332   1.3400   1.3612   1.3905   1.4038
     1.4403   1.4546   1.4677   1.4900   1.5138   1.5352   1.5551   1.5781
     1.5967   1.6338   1.6456   1.6707   1.6990   1.7236   1.8388   1.8973

          k =-0.3750-0.1234 0.3752 (310160 PWs)   bands (ev):

   -17.9577 -17.8965 -17.8845 -17.8580 -17.8470 -17.8328 -17.8210 -17.7950
   -15.7276 -15.7096 -15.6718 -15.6326 -15.6231 -15.6017 -15.5980 -15.5465
   -14.3368 -14.3279 -14.2997 -14.2961 -14.2904 -14.2900 -14.2848 -14.2786
   -14.2688 -14.2577 -14.2537 -14.2528 -14.2513 -14.2494 -14.2481 -14.2480
   -14.2410 -14.2404 -14.2390 -14.2389 -14.2360 -14.2322 -14.2242 -14.2234
   -14.2210 -14.2188 -14.2182 -14.2160 -14.2149 -14.2149 -14.2145 -14.2100
   -14.1995 -14.1994 -14.1976 -14.1906 -14.1894 -14.1874 -14.1836 -14.1774
    -9.7690  -9.7403  -9.7171  -9.7023  -9.6796  -9.6589  -9.6290  -9.5924
    -9.4860  -9.4319  -9.4118  -9.3948  -9.3348  -9.3137  -9.2983  -9.2648
    -9.2226  -9.1965  -9.1476  -9.1221  -9.1147  -9.0896  -9.0721  -9.0431
    -9.0343  -9.0148  -8.9945  -8.9760  -8.9623  -8.9343  -8.9213  -8.8772
    -7.8022  -7.7235  -7.6944  -7.6705  -7.6582  -7.6390  -7.6321  -7.6198
    -7.0954  -7.0814  -7.0705  -7.0275  -7.0194  -6.9993  -6.9899  -6.9204
    -5.6483  -5.4922  -5.4608  -5.4462  -5.3715  -5.3514  -5.3387  -5.3177
    -5.3159  -5.2911  -5.2782  -5.2538  -5.1844  -5.0404  -5.0085  -4.8557
    -3.8882  -3.8502  -3.8401  -3.8163  -3.7938  -3.7875  -3.7659  -3.7506
    -3.3286  -3.3040  -3.2999  -3.2577  -3.2544  -3.2426  -3.2312  -3.1915
    -0.7857  -0.7541  -0.6953  -0.6592  -0.5285  -0.4374  -0.4067  -0.3647
    -0.3118  -0.2720  -0.2289  -0.1721  -0.1588  -0.1280  -0.1008  -0.0837
    -0.0668  -0.0372  -0.0177   0.0265   0.0937   0.1736   0.2276   0.2708
     0.2906   0.3407   0.3758   0.4224   0.4624   0.4759   0.5123   0.5417
     0.6472   0.7015   0.7423   0.7721   0.8065   0.8335   0.8446   0.8819
     0.9282   0.9448   0.9737   0.9811   1.0128   1.0513   1.0639   1.0871
     1.1159   1.1410   1.1666   1.1870   1.2110   1.2279   1.2451   1.2651
     1.2904   1.3079   1.3243   1.3309   1.3484   1.3640   1.3860   1.3960
     1.4262   1.4369   1.4530   1.4696   1.4954   1.5105   1.5323   1.5533
     1.5662   1.6079   1.6180   1.6589   1.6815   1.7172   1.7421   1.7866

          k =-0.3750 0.1234-0.3752 (310160 PWs)   bands (ev):

   -17.9577 -17.8965 -17.8845 -17.8580 -17.8470 -17.8328 -17.8210 -17.7950
   -15.7276 -15.7096 -15.6718 -15.6326 -15.6231 -15.6017 -15.5980 -15.5465
   -14.3368 -14.3279 -14.2997 -14.2961 -14.2904 -14.2900 -14.2848 -14.2786
   -14.2688 -14.2577 -14.2537 -14.2528 -14.2513 -14.2494 -14.2481 -14.2480
   -14.2410 -14.2404 -14.2390 -14.2389 -14.2360 -14.2322 -14.2242 -14.2234
   -14.2210 -14.2188 -14.2182 -14.2160 -14.2149 -14.2149 -14.2145 -14.2100
   -14.1995 -14.1994 -14.1976 -14.1906 -14.1894 -14.1874 -14.1836 -14.1774
    -9.7698  -9.7415  -9.7171  -9.7002  -9.6810  -9.6581  -9.6273  -9.5935
    -9.4702  -9.4496  -9.4193  -9.3864  -9.3377  -9.3146  -9.2955  -9.2606
    -9.2232  -9.2018  -9.1486  -9.1220  -9.1026  -9.0893  -9.0791  -9.0455
    -9.0330  -9.0203  -8.9865  -8.9773  -8.9573  -8.9449  -8.9151  -8.8787
    -7.8020  -7.7234  -7.6945  -7.6704  -7.6577  -7.6396  -7.6319  -7.6201
    -7.0953  -7.0815  -7.0704  -7.0275  -7.0194  -6.9992  -6.9899  -6.9205
    -5.6471  -5.4939  -5.4669  -5.4458  -5.3686  -5.3555  -5.3324  -5.3213
    -5.3027  -5.2930  -5.2776  -5.2599  -5.1833  -5.0405  -5.0097  -4.8567
    -3.8881  -3.8501  -3.8403  -3.8160  -3.7943  -3.7874  -3.7659  -3.7505
    -3.3285  -3.3042  -3.2994  -3.2576  -3.2551  -3.2424  -3.2310  -3.1915
    -0.7751  -0.7476  -0.6900  -0.6603  -0.5150  -0.4643  -0.4105  -0.3608
    -0.3289  -0.2698  -0.2539  -0.1732  -0.1591  -0.1349  -0.1007  -0.0958
    -0.0536  -0.0393  -0.0185   0.0138   0.1130   0.2050   0.2365   0.2689
     0.3202   0.3255   0.3855   0.4245   0.4397   0.4737   0.5130   0.5439
     0.6536   0.7080   0.7427   0.7704   0.8145   0.8190   0.8489   0.8862
     0.9372   0.9488   0.9602   0.9923   1.0088   1.0396   1.0495   1.0961
     1.1138   1.1359   1.1521   1.1986   1.2092   1.2413   1.2466   1.2582
     1.2879   1.2936   1.3097   1.3239   1.3459   1.3624   1.3832   1.4057
[...]
     1.0581   1.0806   1.0984   1.1033   1.1304   1.1563   1.1659   1.1884
     1.2810   1.3014   1.3369   1.3537   1.3609   1.3741   1.3825   1.3985
     1.4190   1.4354   1.4534   1.4689   1.4955   1.5026   1.5309   1.5427
     1.5522   1.5674   1.5935   1.6108   1.6325   1.6506   1.6711   1.6916

          k =-0.3750 0.3703-0.3752 (310127 PWs)   bands (ev):

   -17.9585 -17.8940 -17.8885 -17.8583 -17.8468 -17.8342 -17.8223 -17.7948
   -15.7300 -15.7135 -15.6720 -15.6333 -15.6249 -15.6034 -15.5990 -15.5474
   -14.3376 -14.3285 -14.3006 -14.2970 -14.2913 -14.2909 -14.2859 -14.2791
   -14.2700 -14.2593 -14.2547 -14.2541 -14.2527 -14.2504 -14.2495 -14.2494
   -14.2422 -14.2414 -14.2404 -14.2400 -14.2374 -14.2331 -14.2256 -14.2240
   -14.2224 -14.2196 -14.2192 -14.2178 -14.2174 -14.2160 -14.2155 -14.2111
   -14.2009 -14.2004 -14.1986 -14.1920 -14.1907 -14.1887 -14.1849 -14.1788
    -9.7690  -9.7435  -9.7188  -9.7003  -9.6845  -9.6601  -9.6275  -9.5937
    -9.4642  -9.4302  -9.4152  -9.3859  -9.3764  -9.3392  -9.3151  -9.2728
    -9.2317  -9.1638  -9.1485  -9.1218  -9.1009  -9.0858  -9.0679  -9.0521
    -9.0293  -9.0098  -8.9860  -8.9750  -8.9542  -8.9427  -8.9240  -8.8942
    -7.8016  -7.7275  -7.6918  -7.6684  -7.6575  -7.6435  -7.6325  -7.6205
    -7.0970  -7.0831  -7.0729  -7.0275  -7.0223  -7.0009  -6.9901  -6.9221
    -5.5407  -5.4645  -5.4047  -5.3845  -5.3685  -5.3519  -5.3330  -5.3279
    -5.3169  -5.2915  -5.2735  -5.2508  -5.2000  -5.1473  -5.1417  -4.9967
    -3.8859  -3.8502  -3.8381  -3.8147  -3.7935  -3.7884  -3.7663  -3.7499
    -3.3299  -3.3056  -3.2995  -3.2586  -3.2551  -3.2450  -3.2321  -3.1924
    -0.5289  -0.4943  -0.4442  -0.4286  -0.3808  -0.3563  -0.3325  -0.3048
    -0.2921  -0.2721  -0.2599  -0.1917  -0.1437  -0.1278  -0.1093  -0.0888
    -0.0622  -0.0425  -0.0281   0.0194   0.1215   0.1697   0.1788   0.2409
     0.2569   0.2821   0.3025   0.3251   0.3568   0.3919   0.4220   0.4539
     0.6647   0.6917   0.7140   0.7471   0.7787   0.8020   0.8190   0.8466
     0.8897   0.8952   0.9182   0.9440   0.9640   0.9785   0.9903   1.0223
     1.0690   1.0778   1.0952   1.1128   1.1283   1.1447   1.1658   1.1876
     1.2773   1.3018   1.3320   1.3522   1.3649   1.3750   1.3890   1.4057
     1.4167   1.4417   1.4501   1.4676   1.4888   1.5021   1.5400   1.5450
     1.5609   1.5838   1.5890   1.6045   1.6277   1.6416   1.6631   1.6888

          k = 0.3750-0.3703-0.3752 (310127 PWs)   bands (ev):

   -17.9585 -17.8940 -17.8885 -17.8583 -17.8468 -17.8342 -17.8223 -17.7948
   -15.7300 -15.7135 -15.6720 -15.6333 -15.6249 -15.6034 -15.5990 -15.5474
   -14.3376 -14.3285 -14.3006 -14.2970 -14.2913 -14.2909 -14.2859 -14.2791
   -14.2700 -14.2593 -14.2547 -14.2541 -14.2527 -14.2504 -14.2494 -14.2494
   -14.2422 -14.2414 -14.2404 -14.2400 -14.2374 -14.2331 -14.2256 -14.2240
   -14.2224 -14.2196 -14.2192 -14.2178 -14.2174 -14.2160 -14.2155 -14.2111
   -14.2009 -14.2004 -14.1986 -14.1920 -14.1907 -14.1887 -14.1849 -14.1788
    -9.7684  -9.7406  -9.7148  -9.7062  -9.6882  -9.6602  -9.6267  -9.5934
    -9.4674  -9.4276  -9.4055  -9.3973  -9.3754  -9.3242  -9.3162  -9.2827
    -9.2345  -9.1655  -9.1478  -9.1208  -9.0983  -9.0808  -9.0756  -9.0554
    -9.0234  -9.0081  -8.9918  -8.9702  -8.9544  -8.9418  -8.9282  -8.8923
    -7.8017  -7.7275  -7.6918  -7.6684  -7.6577  -7.6434  -7.6324  -7.6202
    -7.0970  -7.0830  -7.0730  -7.0275  -7.0223  -7.0009  -6.9902  -6.9221
    -5.5422  -5.4651  -5.4096  -5.3789  -5.3671  -5.3474  -5.3382  -5.3168
    -5.3083  -5.2985  -5.2768  -5.2667  -5.1903  -5.1529  -5.1395  -4.9957
    -3.8858  -3.8504  -3.8381  -3.8144  -3.7942  -3.7877  -3.7664  -3.7499
    -3.3300  -3.3059  -3.2995  -3.2587  -3.2547  -3.2449  -3.2321  -3.1923
    -0.5531  -0.4846  -0.4493  -0.4025  -0.3933  -0.3475  -0.3283  -0.3128
    -0.2970  -0.2642  -0.2156  -0.1960  -0.1701  -0.1418  -0.1141  -0.0900
    -0.0740  -0.0382  -0.0229   0.0292   0.1145   0.1549   0.1950   0.2213
     0.2708   0.2924   0.3100   0.3340   0.3639   0.3832   0.4022   0.4598
     0.6607   0.6891   0.7144   0.7477   0.7706   0.8088   0.8154   0.8643
     0.8766   0.8953   0.9137   0.9484   0.9616   0.9773   0.9958   1.0171
     1.0672   1.0781   1.0904   1.1203   1.1257   1.1494   1.1602   1.2004
     1.2769   1.3011   1.3356   1.3472   1.3670   1.3739   1.3868   1.4063
     1.4244   1.4307   1.4539   1.4716   1.4969   1.5083   1.5348   1.5460
     1.5521   1.5692   1.5889   1.6076   1.6280   1.6401   1.6703   1.6874

     highest occupied level (ev):     2.1105

!    total energy              =  -16707.46988868 Ry
     Harris-Foulkes estimate   =  -16707.46988869 Ry
     estimated scf accuracy    <          3.9E-10 Ry

     total all-electron energy =   -678114.529573 Ry

     The total energy is the sum of the following terms:

     one-electron contribution =    -948.87025651 Ry
     hartree contribution      =     673.99546355 Ry
     xc contribution           =    -795.81049232 Ry
     ewald contribution        =   -1218.15460485 Ry
     DFT-D3 Dispersion         =      -0.64552110 Ry
     one-center paw contrib.   =  -14417.98447745 Ry

     convergence has been achieved in   7 iterations

     Forces acting on atoms (cartesian axes, Ry/au):

     atom    1 type  1   force =    -0.00015842   -0.00003218    0.00011875
     atom    2 type  1   force =    -0.00019377   -0.00004555   -0.00006668
     atom    3 type  1   force =    -0.00011459   -0.00005648   -0.00001649
     atom    4 type  1   force =    -0.00000642    0.00005469    0.00012498
     atom    5 type  1   force =    -0.00005286   -0.00007697   -0.00001038
     atom    6 type  1   force =     0.00009646    0.00011919   -0.00003679
     atom    7 type  1   force =     0.00001530    0.00009037    0.00001777
     atom    8 type  1   force =     0.00015187    0.00005676    0.00003195
     atom    9 type  2   force =     0.00001177    0.00010723   -0.00020401
     atom   10 type  2   force =    -0.00004122   -0.00005183   -0.00009704
     atom   11 type  2   force =     0.00002351    0.00006099   -0.00014575
     atom   12 type  2   force =    -0.00006214   -0.00026373    0.00010209
     atom   13 type  2   force =     0.00003162    0.00011939   -0.00004853
     atom   14 type  2   force =    -0.00008764   -0.00000680   -0.00001282
     atom   15 type  2   force =     0.00013917   -0.00017270   -0.00011624
     atom   16 type  2   force =    -0.00009772    0.00001329    0.00004431
     atom   17 type  2   force =     0.00007445    0.00005579   -0.00014078
     atom   18 type  2   force =     0.00013368    0.00012723   -0.00001165
     atom   19 type  2   force =    -0.00011535   -0.00001419    0.00014796
     atom   20 type  2   force =    -0.00015352   -0.00006227    0.00005146
     atom   21 type  2   force =    -0.00011475    0.00011067    0.00004338
     atom   22 type  2   force =     0.00030593    0.00002403    0.00010924
     atom   23 type  2   force =    -0.00021928    0.00001086   -0.00006876
     atom   24 type  2   force =    -0.00002309   -0.00004671   -0.00023925
     atom   25 type  2   force =    -0.00000362    0.00007343    0.00005482
     atom   26 type  2   force =    -0.00001847    0.00025153   -0.00008088
     atom   27 type  2   force =    -0.00007412    0.00000920    0.00003057
     atom   28 type  2   force =     0.00010016   -0.00000053   -0.00004386
     atom   29 type  2   force =    -0.00004989   -0.00001277   -0.00004399
     atom   30 type  2   force =    -0.00005745   -0.00002241    0.00001208
     atom   31 type  2   force =    -0.00005708   -0.00009505    0.00020195
     atom   32 type  2   force =    -0.00000557    0.00017607   -0.00003984
     atom   33 type  3   force =    -0.00044336    0.00003320   -0.00022080
     atom   34 type  3   force =     0.00011463    0.00005585    0.00022433
     atom   35 type  3   force =     0.00015117   -0.00006769    0.00029324
     atom   36 type  3   force =     0.00009781    0.00034935    0.00030533
     atom   37 type  3   force =    -0.00003730    0.00020091   -0.00009703
     atom   38 type  3   force =    -0.00023152   -0.00022221   -0.00032861
     atom   39 type  3   force =     0.00005433   -0.00003429   -0.00038012
     atom   40 type  3   force =     0.00034584    0.00018578    0.00014899
     atom   41 type  4   force =     0.00019177    0.00012328    0.00027444
     atom   42 type  4   force =    -0.00010774    0.00006837   -0.00022121
     atom   43 type  4   force =     0.00000080   -0.00005427   -0.00022629
     atom   44 type  4   force =     0.00003431   -0.00013279   -0.00023169
     atom   45 type  4   force =     0.00010850   -0.00012108   -0.00022441
     atom   46 type  4   force =     0.00034097   -0.00021471    0.00032316
     atom   47 type  4   force =    -0.00004923   -0.00008328    0.00015493
     atom   48 type  4   force =    -0.00017689   -0.00005749    0.00001185
     atom   49 type  4   force =     0.00021946    0.00019519    0.00006783
     atom   50 type  4   force =    -0.00031763    0.00015045   -0.00007649
     atom   51 type  4   force =     0.00001331    0.00012934    0.00014898
     atom   52 type  4   force =    -0.00005518   -0.00019057   -0.00019493
     atom   53 type  4   force =    -0.00031333   -0.00006335    0.00025473
     atom   54 type  4   force =     0.00008965   -0.00022189   -0.00011039
     atom   55 type  4   force =     0.00003096    0.00021789    0.00031243
     atom   56 type  4   force =    -0.00017107    0.00004000   -0.00000140
     atom   57 type  5   force =    -0.00007844   -0.00000014   -0.00008019
     atom   58 type  5   force =     0.00013856   -0.00000687    0.00002338
     atom   59 type  5   force =    -0.00013776   -0.00025087    0.00060489
     atom   60 type  5   force =    -0.00014226    0.00003960   -0.00005431
     atom   61 type  5   force =    -0.00004420   -0.00010428    0.00003106
     atom   62 type  5   force =     0.00004853    0.00016326    0.00025117
     atom   63 type  5   force =    -0.00002908    0.00003862    0.00002608
     atom   64 type  5   force =    -0.00000576    0.00011352   -0.00017189
     atom   65 type  5   force =     0.00015156   -0.00015241   -0.00003649
     atom   66 type  5   force =     0.00001704   -0.00011027   -0.00020018
     atom   67 type  5   force =     0.00012799    0.00012831   -0.00042932
     atom   68 type  5   force =    -0.00002313   -0.00009098   -0.00004621
     atom   69 type  5   force =     0.00005002   -0.00039764   -0.00024056
     atom   70 type  5   force =     0.00014421   -0.00003499    0.00019076
     atom   71 type  5   force =    -0.00006709    0.00003209   -0.00007244
     atom   72 type  5   force =    -0.00001689    0.00003956   -0.00001316
     atom   73 type  5   force =    -0.00001455   -0.00012845   -0.00000786
     atom   74 type  5   force =     0.00009687    0.00022075    0.00006659
     atom   75 type  5   force =     0.00003830   -0.00021304   -0.00019965
     atom   76 type  5   force =    -0.00000439   -0.00011363    0.00000306
     atom   77 type  5   force =     0.00019279   -0.00010907   -0.00048300
     atom   78 type  5   force =     0.00032862   -0.00026357    0.00033772
     atom   79 type  5   force =    -0.00005309   -0.00010375   -0.00014671
     atom   80 type  5   force =     0.00003620    0.00001773   -0.00011153
     atom   81 type  5   force =     0.00020372    0.00026266   -0.00003306
     atom   82 type  5   force =    -0.00001254   -0.00011805    0.00004804
     atom   83 type  5   force =     0.00017672    0.00031115   -0.00022311
     atom   84 type  5   force =    -0.00000903   -0.00010255   -0.00004235
     atom   85 type  5   force =    -0.00006347   -0.00020784    0.00032114
     atom   86 type  5   force =    -0.00005084   -0.00012410   -0.00023448
     atom   87 type  5   force =     0.00016957    0.00020376    0.00012846
     atom   88 type  5   force =     0.00004893    0.00004441    0.00000892
     atom   89 type  5   force =    -0.00002462    0.00017939   -0.00015858
     atom   90 type  5   force =     0.00000337   -0.00023984   -0.00003610
     atom   91 type  5   force =     0.00001261    0.00011734    0.00056161
     atom   92 type  5   force =    -0.00011183    0.00008203   -0.00010038
     atom   93 type  5   force =    -0.00025100   -0.00018901    0.00054539
     atom   94 type  5   force =    -0.00027049   -0.00000750   -0.00021959
     atom   95 type  5   force =     0.00012359    0.00025437    0.00021469
     atom   96 type  5   force =     0.00003410    0.00003371    0.00010374

     Total force =     0.002561     Total SCF correction =     0.000030


     Computing stress (Cartesian axis) and pressure

          total   stress  (Ry/bohr**3)                   (kbar)     P=    0.02
  -0.00000021   0.00000032  -0.00000609         -0.03      0.05     -0.90
   0.00000032   0.00000047   0.00000075          0.05      0.07      0.11
  -0.00000609   0.00000075   0.00000016         -0.90      0.11      0.02


     number of scf cycles    =   4
     number of bfgs steps    =   3

     enthalpy old            =  -16707.4698767132 Ry
     enthalpy new            =  -16707.4698886846 Ry

     CASE: enthalpy_new < enthalpy_old

     new trust radius        =       0.0028544448 bohr
     new conv_thr            =       0.0000000012 Ry

     new unit-cell volume =  13973.50339 a.u.^3 (  2070.65954 Ang^3 )
     density =      4.06569 g/cm^3

CELL_PARAMETERS (angstrom)
  12.695070916   0.000000000   0.000000000
   0.000000000  12.854300977   0.000000000
   0.000000000   0.000000000  12.688932942

ATOMIC_POSITIONS (crystal)
Pb      -0.012441092  -0.023871364   0.007914009    0   0   0
Pb       0.486127180  -0.018666928   0.002261476    0   0   0
Pb      -0.014256292   0.481819570   0.009965562    0   0   0
Pb       0.023197996  -0.018371430   0.512061181    0   0   0
Pb       0.487182601   0.482649918  -0.003781880    0   0   0
Pb       0.020749614   0.477979513   0.506147789    0   0   0
Pb       0.525694008  -0.017784955   0.503012555    0   0   0
Pb       0.520311617   0.485398979   0.500179968    0   0   0
I        0.236802729  -0.009311300  -0.041293640    0   0   0
I        0.737084509  -0.004452818   0.043273878    0   0   0
I        0.235457186   0.487906753   0.059047384    0   0   0
I        0.271773942  -0.030474984   0.526432591    0   0   0
I        0.736237747   0.489876203  -0.052827831    0   0   0
I        0.272098928   0.473836031   0.460636116    0   0   0
I        0.771852654  -0.017431164   0.480090933    0   0   0
I        0.772534567   0.461717125   0.539769392    0   0   0
I       -0.029047600   0.233140193   0.008014837    0   0   0
I        0.470520124   0.232261105   0.008575002    0   0   0
I       -0.030928449   0.732599426   0.002456495    0   0   0
I        0.042656606   0.229807834   0.503633040    0   0   0
I        0.469948485   0.732663072  -0.000920343    0   0   0
I        0.025039501   0.728727015   0.511745118    0   0   0
I        0.532381895   0.231116806   0.503928954    0   0   0
I        0.541835931   0.731364839   0.504319627    0   0   0
I        0.035546498  -0.032932408   0.258307605    0   0   0
I        0.469570489  -0.021394020   0.253977610    0   0   0
I       -0.051032907   0.483811935   0.258039371    0   0   0
I       -0.041398965  -0.018546449   0.758604983    0   0   0
I        0.552027250   0.482960086   0.247070295    0   0   0
I        0.050714830   0.478055017   0.758344638    0   0   0
I        0.533051657  -0.024176564   0.755337833    0   0   0
I        0.456543875   0.469120332   0.748223225    0   0   0
C        0.236199239   0.251231106   0.250943228
C        0.763261791   0.254532006   0.276984967
C        0.245889318   0.734180874   0.294274869
C        0.258320401   0.251209120   0.733625407
C        0.750773337   0.792362976   0.252264629
C        0.254267203   0.772187722   0.747422485
C        0.733533092   0.252600630   0.755987539
C        0.758852367   0.751071925   0.735328832
N        0.203704373   0.197013922   0.169494883
N        0.692846481   0.235549754   0.203521945
N        0.163899077   0.679162174   0.264952095
N        0.187427244   0.234098858   0.807083491
N        0.664778788   0.743182745   0.223311220
N        0.176245399   0.731439838   0.801505843
N        0.704717006   0.202399435   0.841403195
N        0.688532175   0.743735425   0.810947932
N        0.314250866   0.224659268   0.313353407
N        0.847370872   0.197691014   0.294741107
N        0.341914051   0.720451067   0.258299036
N        0.339387967   0.190747315   0.714230346
N        0.840231040   0.748269871   0.278357084
N        0.328523186   0.718404926   0.700350038
N        0.810459393   0.224096205   0.693097968
N        0.836251913   0.684859134   0.720725335
H        0.195823079   0.324271216   0.268256447
H        0.750821882   0.322661846   0.327010385
H        0.233946057   0.795524392   0.352800123
H        0.249350036   0.321077364   0.685446036
H        0.747616445   0.877104288   0.254807857
H        0.257391025   0.856750336   0.740416480
H        0.690674093   0.323482385   0.735525055
H        0.752841195   0.816896944   0.681130761
H        0.237517279   0.128498974   0.146981135
H        0.698672132   0.173265109   0.153374175
H        0.169785308   0.619413141   0.211601431
H        0.190736811   0.170652238   0.855927999
H        0.657150952   0.663749876   0.221927552
H        0.163256394   0.652879885   0.805975409
H        0.740629989   0.135850815   0.866802973
H        0.689177742   0.683744862   0.864117464
H        0.141553233   0.222565186   0.124726426
H        0.630485617   0.285005394   0.194950155
H        0.094148101   0.690044568   0.303009517
H        0.127026813   0.285819900   0.816154380
H        0.600393402   0.785772735   0.202598603
H        0.122255911   0.777931651   0.837748008
H        0.642878713   0.228669304   0.885865428
H        0.629717291   0.797788026   0.815427061
H        0.356934196   0.157811281   0.303172454
H        0.865359904   0.132610352   0.252337761
H        0.359679691   0.666348495   0.202222063
H        0.354029991   0.124151726   0.755435488
H        0.853390343   0.669533355   0.275401811
H        0.336084346   0.639325820   0.707674403
H        0.854607382   0.158460740   0.706013057
H        0.846067326   0.620752620   0.767113168
H        0.333571175   0.271835347   0.375133134
H        0.898310256   0.217125651   0.354269601
H        0.399612074   0.771080070   0.280485908
H        0.391940202   0.209902158   0.655966704
H        0.902377256   0.795390777   0.296835863
H        0.385256316   0.755083940   0.656939656
H        0.826471881   0.268700685   0.628426781
H        0.888318082   0.696038003   0.660065305



     Writing output data file FAPbI83_vcrelax.save/
     NEW-OLD atomic charge density approx. for the potential
     extrapolated charge  432.03141, renormalised to  432.00000

     total cpu time spent up to now is   245079.2 secs

     Self-consistent Calculation

     iteration #  1     ecut=   120.00 Ry     beta= 0.70
     Davidson diagonalization with overlap
     ethr =  1.00E-06,  avg # of iterations =  2.0

     Threshold (ethr) on eigenvalues was too large:
     Diagonalizing with lowered threshold

     Davidson diagonalization with overlap
     ethr =  1.63E-09,  avg # of iterations =  4.0

     total cpu time spent up to now is   250318.2 secs

     total energy              =  -16707.46989364 Ry
     Harris-Foulkes estimate   =  -16707.41838322 Ry
     estimated scf accuracy    <       0.00000876 Ry

     iteration #  2     ecut=   120.00 Ry     beta= 0.70
     Davidson diagonalization with overlap
     ethr =  2.03E-09,  avg # of iterations =  4.0

     total cpu time spent up to now is   253876.2 secs

     total energy              =  -16707.46990012 Ry
     Harris-Foulkes estimate   =  -16707.46990609 Ry
     estimated scf accuracy    <       0.00001336 Ry

     iteration #  3     ecut=   120.00 Ry     beta= 0.70
     Davidson diagonalization with overlap
