
     Program PWSCF v.6.4 starts on 11Aug2020 at 19: 2:39 

     This program is part of the open-source Quantum ESPRESSO suite
     for quantum simulation of materials; please cite
         "P. Giannozzi et al., J. Phys.:Condens. Matter 21 395502 (2009);
         "P. Giannozzi et al., J. Phys.:Condens. Matter 29 465901 (2017);
          URL http://www.quantum-espresso.org", 
     in publications or presentations arising from this work. More details at
     http://www.quantum-espresso.org/quote

     Parallel version (MPI), running on    32 processors

     MPI processes distributed on     1 nodes
     R & G space division:  proc/nbgrp/npool/nimage =      32
     Waiting for input...
     Reading input from standard input

     Current dimensions of program PWSCF are:
     Max number of different atomic species (ntypx) = 10
     Max number of k-points (npk) =  40000
     Max angular momentum in pseudopotentials (lmaxx) =  3
               file Pb.pbe-dn-kjpaw_psl.1.0.0.UPF: wavefunction(s)  6S 6P 5D renormalized
               file I.pbe-n-kjpaw_psl.1.0.0.UPF: wavefunction(s)  5S renormalized
               file C.pbe-n-kjpaw_psl.1.0.0.UPF: wavefunction(s)  2S 2P renormalized
               file N.pbe-n-kjpaw_psl.1.0.0.UPF: wavefunction(s)  2S renormalized
               file H.pbe-kjpaw_psl.1.0.0.UPF: wavefunction(s)  1S renormalized

     --------------------------------------------
     Parameters for DFT-D3 Dispersion Correction:
     --------------------------------------------
       Reference C6 values for interpolation: 

         atom   Coordination number   C6
         H          0.912             6.05
         H          0.000            15.18
         C          0.000            98.23
         C          0.987            86.49
         C          1.998            58.72
         C          2.999            51.56
         C          3.984            36.41
         N          0.000            50.54
         N          0.994            44.25
         N          2.014            39.35
         N          2.990            31.16
         I          0.000           703.93
         I          0.997           717.00
         Pb         0.000          1477.63
         Pb         0.938          1266.00
         Pb         1.936          1088.91
         Pb         2.908          1048.37
         Pb         3.910           910.57

       Values used:

         atom   Coordination number  R0_AB[au]  C6      C8
         Pb         4.784            4.041    910.57 144158.46
         Pb         4.843            4.041    910.57 144158.33
         Pb         4.710            4.041    910.57 144158.73
         Pb         4.820            4.041    910.57 144158.37
         Pb         4.692            4.041    910.58 144158.83
         Pb         4.768            4.041    910.57 144158.50
         Pb         4.852            4.041    910.57 144158.31
         Pb         4.733            4.041    910.57 144158.63
         I          1.941            3.532    717.00  65855.99
         I          1.972            3.532    717.00  65856.00
         I          1.833            3.532    717.00  65855.98
         I          1.943            3.532    717.00  65855.99
         I          1.869            3.532    717.00  65855.98
         I          1.910            3.532    717.00  65855.99
         I          1.994            3.532    717.00  65856.00
         I          1.949            3.532    717.00  65855.99
         I          1.882            3.532    717.00  65855.99
         I          1.921            3.532    717.00  65855.99
         I          1.946            3.532    717.00  65855.99
         I          1.977            3.532    717.00  65856.00
         I          1.914            3.532    717.00  65855.99
         I          1.966            3.532    717.00  65856.00
         I          1.939            3.532    717.00  65855.99
         I          1.924            3.532    717.00  65855.99
         I          1.896            3.532    717.00  65855.99
         I          1.961            3.532    717.00  65856.00
         I          1.932            3.532    717.00  65855.99
         I          1.959            3.532    717.00  65856.00
         I          1.864            3.532    717.00  65855.98
         I          1.880            3.532    717.00  65855.99
         I          1.995            3.532    717.00  65856.00
         I          1.931            3.532    717.00  65855.99
         C          3.067            2.750     51.06   1476.80
         C          3.071            2.750     51.04   1476.22
         C          3.069            2.750     51.05   1476.48
         C          3.073            2.750     51.03   1476.01
         C          3.079            2.750     51.00   1475.05
         C          3.070            2.750     51.05   1476.40
         C          3.069            2.750     51.05   1476.54
         C          3.068            2.750     51.06   1476.70
         N          3.104            2.478     31.23    689.02
         N          3.099            2.478     31.24    689.07
         N          3.114            2.478     31.23    688.90
         N          3.102            2.478     31.23    689.04
         N          3.100            2.478     31.23    689.07
         N          3.100            2.478     31.23    689.06
         N          3.106            2.478     31.23    688.99
         N          3.106            2.478     31.23    688.99
         N          3.099            2.478     31.24    689.08
         N          3.105            2.478     31.23    689.00
         N          3.102            2.478     31.23    689.04
         N          3.106            2.478     31.23    688.99
         N          3.103            2.478     31.23    689.03
         N          3.100            2.478     31.23    689.06
         N          3.101            2.478     31.23    689.05
         N          3.108            2.478     31.23    688.97
         H          1.016            2.062      6.17     74.55
         H          1.019            2.062      6.17     74.53
         H          1.018            2.062      6.17     74.53
         H          1.017            2.062      6.17     74.54
         H          1.024            2.062      6.16     74.47
         H          1.022            2.062      6.16     74.50
         H          1.017            2.062      6.17     74.54
         H          1.015            2.062      6.17     74.56
         H          1.027            2.062      6.16     74.45
         H          1.052            2.062      6.14     74.23
         H          1.058            2.062      6.14     74.19
         H          1.053            2.062      6.14     74.23
         H          1.055            2.062      6.14     74.22
         H          1.050            2.062      6.14     74.25
         H          1.034            2.062      6.15     74.38
         H          1.046            2.062      6.15     74.28
         H          1.075            2.062      6.13     74.07
         H          1.044            2.062      6.15     74.30
         H          1.042            2.062      6.15     74.31
         H          1.052            2.062      6.14     74.24
         H          1.030            2.062      6.16     74.42
         H          1.033            2.062      6.15     74.39
         H          1.061            2.062      6.14     74.17
         H          1.061            2.062      6.14     74.17
         H          1.043            2.062      6.15     74.31
         H          1.025            2.062      6.16     74.47
         H          1.026            2.062      6.16     74.45
         H          1.028            2.062      6.16     74.43
         H          1.057            2.062      6.14     74.20
         H          1.052            2.062      6.14     74.24
         H          1.053            2.062      6.14     74.23
         H          1.025            2.062      6.16     74.46
         H          1.038            2.062      6.15     74.35
         H          1.072            2.062      6.13     74.09
         H          1.040            2.062      6.15     74.33
         H          1.072            2.062      6.13     74.09
         H          1.044            2.062      6.15     74.30
         H          1.044            2.062      6.15     74.30
         H          1.045            2.062      6.15     74.29
         H          1.087            2.062      6.12     74.00

         Molecular C6 ( Ry / a.u.^6 ) =   1270621.34


     Subspace diagonalization in iterative solution of the eigenvalue problem:
     a serial algorithm will be used


     Parallelization info
     --------------------
     sticks:   dense  smooth     PW     G-vecs:    dense   smooth      PW
     Min         695     695    179                77549    77549   10146
     Max         696     696    181                77552    77552   10148
     Sum       22251   22251   5743              2481597  2481597  324703



     bravais-lattice index     =            0
     lattice parameter (alat)  =      23.9891  a.u.
     unit-cell volume          =   13973.3981 (a.u.)^3
     number of atoms/cell      =           96
     number of atomic types    =            5
     number of electrons       =       432.00
     number of Kohn-Sham states=          216
     kinetic-energy cutoff     =     120.0000  Ry
     charge density cutoff     =     480.0000  Ry
     convergence threshold     =      1.0E-07
     mixing beta               =       0.7000
     number of iterations used =            8  plain     mixing
     Exchange-correlation      = SLA PW PBX PBC ( 1  4  3  4 0 0)
     nstep                     =          200


     celldm(1)=  23.989124  celldm(2)=   0.000000  celldm(3)=   0.000000
     celldm(4)=   0.000000  celldm(5)=   0.000000  celldm(6)=   0.000000

     crystal axes: (cart. coord. in units of alat)
               a(1) = (   1.000000   0.000000   0.000000 )  
               a(2) = (   0.000000   1.012631   0.000000 )  
               a(3) = (   0.000000   0.000000   0.999557 )  

     reciprocal axes: (cart. coord. in units 2 pi/alat)
               b(1) = (  1.000000  0.000000  0.000000 )  
               b(2) = (  0.000000  0.987526  0.000000 )  
               b(3) = (  0.000000  0.000000  1.000443 )  


     PseudoPot. # 1 for Pb read from file:
     ../../../Pseudopotential/Pb.pbe-dn-kjpaw_psl.1.0.0.UPF
     MD5 check sum: 684fc8fbce61a260853528575e4d9ab7
     Pseudo is Projector augmented-wave + core cor, Zval = 14.0
     Generated using "atomic" code by A. Dal Corso v.6.3
     Shape of augmentation charge: PSQ
     Using radial grid of 1281 points,  6 beta functions with: 
                l(1) =   0
                l(2) =   0
                l(3) =   1
                l(4) =   1
                l(5) =   2
                l(6) =   2
     Q(r) pseudized with 0 coefficients 


     PseudoPot. # 2 for I  read from file:
     ../../../Pseudopotential/I.pbe-n-kjpaw_psl.1.0.0.UPF
     MD5 check sum: cd3d296c3308a581e1559a0c8a554cb5
     Pseudo is Projector augmented-wave + core cor, Zval =  7.0
     Generated using "atomic" code by A. Dal Corso v.6.3
     Shape of augmentation charge: PSQ
     Using radial grid of 1247 points,  6 beta functions with: 
                l(1) =   0
                l(2) =   0
                l(3) =   1
                l(4) =   1
                l(5) =   2
                l(6) =   2
     Q(r) pseudized with 0 coefficients 


     PseudoPot. # 3 for C  read from file:
     ../../../Pseudopotential/C.pbe-n-kjpaw_psl.1.0.0.UPF
     MD5 check sum: 5f16ad9a65e90284d1d834d4ab3b0f7d
     Pseudo is Projector augmented-wave + core cor, Zval =  4.0
     Generated using "atomic" code by A. Dal Corso v.6.3
     Shape of augmentation charge: PSQ
     Using radial grid of 1073 points,  4 beta functions with: 
                l(1) =   0
                l(2) =   0
                l(3) =   1
                l(4) =   1
     Q(r) pseudized with 0 coefficients 


     PseudoPot. # 4 for N  read from file:
     ../../../Pseudopotential/N.pbe-n-kjpaw_psl.1.0.0.UPF
     MD5 check sum: 14c48229446f9f2d411169a3abcbc3fa
     Pseudo is Projector augmented-wave + core cor, Zval =  5.0
     Generated using "atomic" code by A. Dal Corso v.6.3
     Shape of augmentation charge: PSQ
     Using radial grid of 1085 points,  4 beta functions with: 
                l(1) =   0
                l(2) =   0
                l(3) =   1
                l(4) =   1
     Q(r) pseudized with 0 coefficients 


     PseudoPot. # 5 for H  read from file:
     ../../../Pseudopotential/H.pbe-kjpaw_psl.1.0.0.UPF
     MD5 check sum: d81a744832360e4a8af0b0b5b123bc2a
     Pseudo is Projector augmented-wave, Zval =  1.0
     Generated using "atomic" code by A. Dal Corso v.6.3MaX
     Shape of augmentation charge: PSQ
     Using radial grid of  929 points,  2 beta functions with: 
                l(1) =   0
                l(2) =   0
     Q(r) pseudized with 0 coefficients 


     atomic species   valence    mass     pseudopotential
        Pb            14.00   207.97600     Pb( 1.00)
        I              7.00   126.90400     I ( 1.00)
        C              4.00    12.00000     C ( 1.00)
        N              5.00    14.00300     N ( 1.00)
        H              1.00     1.00700     H ( 1.00)

     No symmetry found



   Cartesian axes

     site n.     atom                  positions (alat units)
         1           Pb  tau(   1) = (  -0.0124411  -0.0241729   0.0079105  )
         2           Pb  tau(   2) = (   0.4861272  -0.0189027   0.0022605  )
         3           Pb  tau(   3) = (  -0.0142563   0.4879055   0.0099611  )
         4           Pb  tau(   4) = (   0.0231980  -0.0186035   0.5118344  )
         5           Pb  tau(   5) = (   0.4871826   0.4887463  -0.0037802  )
         6           Pb  tau(   6) = (   0.0207496   0.4840169   0.5059236  )
         7           Pb  tau(   7) = (   0.5256940  -0.0180096   0.5027898  )
         8           Pb  tau(   8) = (   0.5203116   0.4915301   0.4999585  )
         9           I   tau(   9) = (   0.2368027  -0.0094289  -0.0412754  )
        10           I   tau(  10) = (   0.7370845  -0.0045091   0.0432547  )
        11           I   tau(  11) = (   0.2354572   0.4940696   0.0590212  )
        12           I   tau(  12) = (   0.2717739  -0.0308599   0.5261994  )
        13           I   tau(  13) = (   0.7362377   0.4960639  -0.0528044  )
        14           I   tau(  14) = (   0.2720989   0.4798211   0.4604321  )
        15           I   tau(  15) = (   0.7718527  -0.0176513   0.4798783  )
        16           I   tau(  16) = (   0.7725346   0.4675491   0.5395303  )
        17           I   tau(  17) = (  -0.0290476   0.2360850   0.0080113  )
        18           I   tau(  18) = (   0.4705201   0.2351948   0.0085712  )
        19           I   tau(  19) = (  -0.0309284   0.7418530   0.0024554  )
        20           I   tau(  20) = (   0.0426566   0.2327106   0.5034100  )
        21           I   tau(  21) = (   0.4699485   0.7419174  -0.0009199  )
        22           I   tau(  22) = (   0.0250395   0.7379316   0.5115185  )
        23           I   tau(  23) = (   0.5323819   0.2340361   0.5037058  )
        24           I   tau(  24) = (   0.5418359   0.7406028   0.5040963  )
        25           I   tau(  25) = (   0.0355465  -0.0333484   0.2581932  )
        26           I   tau(  26) = (   0.4695705  -0.0216642   0.2538651  )
        27           I   tau(  27) = (  -0.0510329   0.4899230   0.2579251  )
        28           I   tau(  28) = (  -0.0413990  -0.0187807   0.7582690  )
        29           I   tau(  29) = (   0.5520272   0.4890604   0.2469609  )
        30           I   tau(  30) = (   0.0507148   0.4840934   0.7580088  )
        31           I   tau(  31) = (   0.5330517  -0.0244819   0.7550033  )
        32           I   tau(  32) = (   0.4565439   0.4750458   0.7478919  )
        33           C   tau(  33) = (   0.2361777   0.2543984   0.2508491  )
        34           C   tau(  34) = (   0.7632280   0.2577493   0.2768560  )
        35           C   tau(  35) = (   0.2458994   0.7434329   0.2941946  )
        36           C   tau(  36) = (   0.2583782   0.2544330   0.7333463  )
        37           C   tau(  37) = (   0.7507573   0.8023735   0.2521304  )
        38           C   tau(  38) = (   0.2542363   0.7819285   0.7470121  )
        39           C   tau(  39) = (   0.7335001   0.2557763   0.7556350  )
        40           C   tau(  40) = (   0.7588873   0.7606157   0.7350460  )
        41           N   tau(  41) = (   0.2037318   0.1994845   0.1694209  )
        42           N   tau(  42) = (   0.6928498   0.2385221   0.2033990  )
        43           N   tau(  43) = (   0.1639238   0.6877359   0.2647968  )
        44           N   tau(  44) = (   0.1874150   0.2370286   0.8066952  )
        45           N   tau(  45) = (   0.6647842   0.7525380   0.2231718  )
        46           N   tau(  46) = (   0.1763094   0.7406534   0.8012058  )
        47           N   tau(  47) = (   0.7047138   0.2049676   0.8410251  )
        48           N   tau(  48) = (   0.6885185   0.7531132   0.8105728  )
        49           N   tau(  49) = (   0.3142601   0.2275303   0.3131887  )
        50           N   tau(  50) = (   0.8473470   0.2001902   0.2946012  )
        51           N   tau(  51) = (   0.3419281   0.7295708   0.2582028  )
        52           N   tau(  52) = (   0.3393671   0.1931320   0.7138827  )
        53           N   tau(  53) = (   0.8401909   0.7577029   0.2782864  )
        54           N   tau(  54) = (   0.3285267   0.7274514   0.7000358  )
        55           N   tau(  55) = (   0.8104955   0.2269570   0.6928206  )
        56           N   tau(  56) = (   0.8362331   0.6935030   0.7204039  )
        57           H   tau(  57) = (   0.1958107   0.3283773   0.2681343  )
        58           H   tau(  58) = (   0.7508603   0.3267438   0.3268858  )
        59           H   tau(  59) = (   0.2339246   0.8055279   0.3527416  )
        60           H   tau(  60) = (   0.2493221   0.3251410   0.6851258  )
        61           H   tau(  61) = (   0.7476132   0.8882015   0.2547023  )
        62           H   tau(  62) = (   0.2573976   0.8675789   0.7401369  )
        63           H   tau(  63) = (   0.6906628   0.3275758   0.7352184  )
        64           H   tau(  64) = (   0.7528406   0.8272230   0.6808041  )
        65           H   tau(  65) = (   0.2375481   0.1301036   0.1469234  )
        66           H   tau(  66) = (   0.6986876   0.1754256   0.1532738  )
        67           H   tau(  67) = (   0.1698136   0.6272619   0.2114331  )
        68           H   tau(  68) = (   0.1907267   0.1728010   0.8555399  )
        69           H   tau(  69) = (   0.6571496   0.6720881   0.2217837  )
        70           H   tau(  70) = (   0.1632819   0.6611148   0.8056506  )
        71           H   tau(  71) = (   0.7406237   0.1375750   0.8664009  )
        72           H   tau(  72) = (   0.6891846   0.6923725   0.8637379  )
        73           H   tau(  73) = (   0.1415706   0.2253696   0.1247065  )
        74           H   tau(  74) = (   0.6305142   0.2886559   0.1948957  )
        75           H   tau(  75) = (   0.0941639   0.6987340   0.3028457  )
        76           H   tau(  76) = (   0.1270303   0.2894024   0.8157994  )
        77           H   tau(  77) = (   0.6004175   0.7956640   0.2024241  )
        78           H   tau(  78) = (   0.1223147   0.7877085   0.8374353  )
        79           H   tau(  79) = (   0.6428566   0.2315423   0.8854604  )
        80           H   tau(  80) = (   0.6297331   0.8078774   0.8150298  )
        81           H   tau(  81) = (   0.3569497   0.1598407   0.3030084  )
        82           H   tau(  82) = (   0.8653404   0.1342898   0.2522406  )
        83           H   tau(  83) = (   0.3596976   0.6748159   0.2020958  )
        84           H   tau(  84) = (   0.3540244   0.1257033   0.7550936  )
        85           H   tau(  85) = (   0.8533914   0.6779857   0.2753382  )
        86           H   tau(  86) = (   0.3360769   0.6473576   0.7073208  )
        87           H   tau(  87) = (   0.8546497   0.1604954   0.7057075  )
        88           H   tau(  88) = (   0.8460697   0.6286018   0.7667802  )
        89           H   tau(  89) = (   0.3335398   0.2753241   0.3749307  )
        90           H   tau(  90) = (   0.8982919   0.2198348   0.3540973  )
        91           H   tau(  91) = (   0.3995892   0.7808384   0.2804653  )
        92           H   tau(  92) = (   0.3919198   0.2125704   0.6556576  )
        93           H   tau(  93) = (   0.9023465   0.8053839   0.2967982  )
        94           H   tau(  94) = (   0.3852051   0.7646278   0.6566138  )
        95           H   tau(  95) = (   0.8265009   0.2721235   0.6281867  )
        96           H   tau(  96) = (   0.8883080   0.7048459   0.6597957  )

     number of k points=    32
                       cart. coord. in units 2pi/alat
        k(    1) = (   0.1250000   0.1234408   0.1250554), wk =   0.0625000
        k(    2) = (   0.1250000   0.1234408   0.3751662), wk =   0.0625000
        k(    3) = (   0.1250000   0.3703224   0.1250554), wk =   0.0625000
        k(    4) = (   0.1250000   0.3703224   0.3751662), wk =   0.0625000
        k(    5) = (   0.3750000   0.1234408   0.1250554), wk =   0.0625000
        k(    6) = (   0.3750000   0.1234408   0.3751662), wk =   0.0625000
        k(    7) = (   0.3750000   0.3703224   0.1250554), wk =   0.0625000
        k(    8) = (   0.3750000   0.3703224   0.3751662), wk =   0.0625000
        k(    9) = (  -0.1250000  -0.1234408   0.1250554), wk =   0.0625000
        k(   10) = (  -0.1250000   0.1234408  -0.1250554), wk =   0.0625000
        k(   11) = (   0.1250000  -0.1234408  -0.1250554), wk =   0.0625000
        k(   12) = (  -0.1250000  -0.1234408   0.3751662), wk =   0.0625000
        k(   13) = (  -0.1250000   0.1234408  -0.3751662), wk =   0.0625000
        k(   14) = (   0.1250000  -0.1234408  -0.3751662), wk =   0.0625000
        k(   15) = (  -0.1250000  -0.3703224   0.1250554), wk =   0.0625000
        k(   16) = (  -0.1250000   0.3703224  -0.1250554), wk =   0.0625000
        k(   17) = (   0.1250000  -0.3703224  -0.1250554), wk =   0.0625000
        k(   18) = (  -0.1250000  -0.3703224   0.3751662), wk =   0.0625000
        k(   19) = (  -0.1250000   0.3703224  -0.3751662), wk =   0.0625000
        k(   20) = (   0.1250000  -0.3703224  -0.3751662), wk =   0.0625000
        k(   21) = (  -0.3750000  -0.1234408   0.1250554), wk =   0.0625000
        k(   22) = (  -0.3750000   0.1234408  -0.1250554), wk =   0.0625000
        k(   23) = (   0.3750000  -0.1234408  -0.1250554), wk =   0.0625000
        k(   24) = (  -0.3750000  -0.1234408   0.3751662), wk =   0.0625000
        k(   25) = (  -0.3750000   0.1234408  -0.3751662), wk =   0.0625000
        k(   26) = (   0.3750000  -0.1234408  -0.3751662), wk =   0.0625000
        k(   27) = (  -0.3750000  -0.3703224   0.1250554), wk =   0.0625000
        k(   28) = (  -0.3750000   0.3703224  -0.1250554), wk =   0.0625000
        k(   29) = (   0.3750000  -0.3703224  -0.1250554), wk =   0.0625000
        k(   30) = (  -0.3750000  -0.3703224   0.3751662), wk =   0.0625000
        k(   31) = (  -0.3750000   0.3703224  -0.3751662), wk =   0.0625000
        k(   32) = (   0.3750000  -0.3703224  -0.3751662), wk =   0.0625000

     Dense  grid:  2481597 G-vectors     FFT dimensions: ( 180, 180, 180)

     Estimated max dynamical RAM per process >       1.82 GB

     Estimated total dynamical RAM >      58.17 GB

     Initial potential from superposition of free atoms

     starting charge  431.97851, renormalised to  432.00000
     Starting wfcs are  304 randomized atomic wfcs
     Checking if some PAW data can be deallocated... 

     total cpu time spent up to now is     1626.0 secs

     Self-consistent Calculation

     iteration #  1     ecut=   120.00 Ry     beta= 0.70
     Davidson diagonalization with overlap
     ethr =  1.00E-02,  avg # of iterations =  2.0

     total cpu time spent up to now is     4807.6 secs

     total energy              =  -16705.01422937 Ry
     Harris-Foulkes estimate   =  -16709.28702481 Ry
     estimated scf accuracy    <       6.76302430 Ry

     iteration #  2     ecut=   120.00 Ry     beta= 0.70
     Davidson diagonalization with overlap
     ethr =  1.57E-03,  avg # of iterations =  4.0

     total cpu time spent up to now is     8674.4 secs

     total energy              =  -16706.55290194 Ry
     Harris-Foulkes estimate   =  -16708.64531562 Ry
     estimated scf accuracy    <       3.90115333 Ry

     iteration #  3     ecut=   120.00 Ry     beta= 0.70
     Davidson diagonalization with overlap
     ethr =  9.03E-04,  avg # of iterations =  3.0

     total cpu time spent up to now is    11738.8 secs

     total energy              =  -16707.41800004 Ry
     Harris-Foulkes estimate   =  -16707.48488594 Ry
     estimated scf accuracy    <       0.14551645 Ry

     iteration #  4     ecut=   120.00 Ry     beta= 0.70
     Davidson diagonalization with overlap
     ethr =  3.37E-05,  avg # of iterations =  4.0

     total cpu time spent up to now is    15901.1 secs

     total energy              =  -16707.46155494 Ry
     Harris-Foulkes estimate   =  -16707.48127087 Ry
     estimated scf accuracy    <       0.03919449 Ry

     iteration #  5     ecut=   120.00 Ry     beta= 0.70
     Davidson diagonalization with overlap
     ethr =  9.07E-06,  avg # of iterations =  3.0

     total cpu time spent up to now is    19258.2 secs

     total energy              =  -16707.46900989 Ry
     Harris-Foulkes estimate   =  -16707.47021826 Ry
     estimated scf accuracy    <       0.00224923 Ry

     iteration #  6     ecut=   120.00 Ry     beta= 0.70
     Davidson diagonalization with overlap
     ethr =  5.21E-07,  avg # of iterations =  4.0

     total cpu time spent up to now is    23430.0 secs

     total energy              =  -16707.46964142 Ry
     Harris-Foulkes estimate   =  -16707.47017957 Ry
     estimated scf accuracy    <       0.00118862 Ry

     iteration #  7     ecut=   120.00 Ry     beta= 0.70
     Davidson diagonalization with overlap
     ethr =  2.75E-07,  avg # of iterations =  3.9

     total cpu time spent up to now is    26677.6 secs

     total energy              =  -16707.46989696 Ry
     Harris-Foulkes estimate   =  -16707.46993507 Ry
     estimated scf accuracy    <       0.00008654 Ry

     iteration #  8     ecut=   120.00 Ry     beta= 0.70
     Davidson diagonalization with overlap
     ethr =  2.00E-08,  avg # of iterations =  4.0

     total cpu time spent up to now is    30413.5 secs

     total energy              =  -16707.46991959 Ry
     Harris-Foulkes estimate   =  -16707.46992891 Ry
     estimated scf accuracy    <       0.00002055 Ry

     iteration #  9     ecut=   120.00 Ry     beta= 0.70
     Davidson diagonalization with overlap
     ethr =  4.76E-09,  avg # of iterations =  4.0

     total cpu time spent up to now is    33922.0 secs

     total energy              =  -16707.46992397 Ry
     Harris-Foulkes estimate   =  -16707.46992489 Ry
     estimated scf accuracy    <       0.00000193 Ry

     iteration # 10     ecut=   120.00 Ry     beta= 0.70
     Davidson diagonalization with overlap
     ethr =  4.46E-10,  avg # of iterations =  4.0

     total cpu time spent up to now is    37411.4 secs

     total energy              =  -16707.46992445 Ry
     Harris-Foulkes estimate   =  -16707.46992459 Ry
     estimated scf accuracy    <       0.00000032 Ry

     iteration # 11     ecut=   120.00 Ry     beta= 0.70
     Davidson diagonalization with overlap
     ethr =  7.34E-11,  avg # of iterations =  4.0

     total cpu time spent up to now is    41038.6 secs

     End of self-consistent calculation

          k = 0.1250 0.1234 0.1251 (310206 PWs)   bands (ev):

   -17.9574 -17.8939 -17.8893 -17.8591 -17.8465 -17.8349 -17.8237 -17.7951
   -15.7327 -15.7092 -15.6719 -15.6340 -15.6244 -15.6037 -15.5998 -15.5477
   -14.3390 -14.3299 -14.3016 -14.2980 -14.2920 -14.2914 -14.2871 -14.2802
   -14.2712 -14.2601 -14.2551 -14.2542 -14.2533 -14.2513 -14.2508 -14.2492
   -14.2418 -14.2415 -14.2411 -14.2408 -14.2380 -14.2342 -14.2264 -14.2250
   -14.2231 -14.2204 -14.2200 -14.2181 -14.2167 -14.2164 -14.2158 -14.2118
   -14.2013 -14.2009 -14.1990 -14.1924 -14.1917 -14.1897 -14.1859 -14.1792
    -9.8152  -9.7719  -9.7155  -9.6937  -9.6562  -9.6360  -9.5963  -9.5813
    -9.4807  -9.4756  -9.4105  -9.3743  -9.3445  -9.3047  -9.2873  -9.2463
    -9.2204  -9.1838  -9.1744  -9.1437  -9.1223  -9.1111  -9.0832  -9.0604
    -9.0465  -9.0221  -9.0009  -8.9824  -8.9603  -8.9494  -8.8918  -8.8537
    -7.8039  -7.7241  -7.6918  -7.6712  -7.6587  -7.6393  -7.6325  -7.6189
    -7.0982  -7.0837  -7.0726  -7.0292  -7.0222  -7.0004  -6.9916  -6.9229
    -5.8784  -5.4924  -5.4688  -5.4269  -5.4026  -5.3542  -5.3449  -5.3322
    -5.3192  -5.3007  -5.2897  -5.2689  -5.0400  -4.9909  -4.9799  -4.5894
    -3.8880  -3.8546  -3.8399  -3.8146  -3.7957  -3.7879  -3.7652  -3.7505
    -3.3301  -3.3071  -3.3000  -3.2590  -3.2569  -3.2468  -3.2293  -3.1907
    -0.8883  -0.8577  -0.8151  -0.7582  -0.7312  -0.7083  -0.6885  -0.6510
    -0.6135  -0.5917  -0.5314  -0.4950  -0.1857  -0.1579  -0.1242  -0.1075
    -0.0775  -0.0478  -0.0184   0.0186   0.3539   0.4156   0.4488   0.4768
     0.4946   0.5132   0.5360   0.5576   0.5832   0.6330   0.6768   0.7424
     0.7757   0.8002   0.8499   0.8690   0.8890   0.9178   0.9438   0.9683
     0.9927   1.0174   1.0263   1.0441   1.0558   1.0709   1.0889   1.0971
     1.1125   1.1389   1.1582   1.1807   1.1902   1.2056   1.2309   1.2482
     1.2640   1.2801   1.2990   1.3084   1.3278   1.3385   1.3645   1.4055
     1.4192   1.4480   1.4619   1.4726   1.5035   1.5216   1.5762   1.6026
     1.6579   1.6984   1.7121   1.7526   1.7980   1.8423   1.8647   2.1098

          k = 0.1250 0.1234 0.3752 (310167 PWs)   bands (ev):

   -17.9574 -17.8939 -17.8893 -17.8591 -17.8465 -17.8349 -17.8237 -17.7951
   -15.7327 -15.7092 -15.6718 -15.6340 -15.6243 -15.6038 -15.5999 -15.5477
   -14.3388 -14.3299 -14.3016 -14.2980 -14.2920 -14.2913 -14.2868 -14.2799
   -14.2710 -14.2599 -14.2551 -14.2547 -14.2533 -14.2511 -14.2508 -14.2495
   -14.2418 -14.2416 -14.2410 -14.2410 -14.2380 -14.2343 -14.2264 -14.2253
   -14.2231 -14.2206 -14.2200 -14.2181 -14.2167 -14.2164 -14.2158 -14.2118
   -14.2013 -14.2009 -14.1990 -14.1924 -14.1917 -14.1897 -14.1859 -14.1792
    -9.7969  -9.7635  -9.7179  -9.6904  -9.6635  -9.6505  -9.6214  -9.5875
    -9.4837  -9.4501  -9.4065  -9.3761  -9.3495  -9.3089  -9.2943  -9.2705
    -9.2259  -9.2010  -9.1471  -9.1236  -9.1073  -9.0892  -9.0731  -9.0596
    -9.0409  -9.0234  -8.9979  -8.9923  -8.9746  -8.9537  -8.8993  -8.8562
    -7.8040  -7.7242  -7.6909  -7.6716  -7.6581  -7.6391  -7.6342  -7.6190
    -7.0982  -7.0836  -7.0726  -7.0294  -7.0221  -7.0003  -6.9916  -6.9229
    -5.7634  -5.5893  -5.4843  -5.3643  -5.3545  -5.3412  -5.3341  -5.3221
    -5.3042  -5.2938  -5.2752  -5.2673  -5.1561  -5.1142  -4.8975  -4.7196
    -3.8869  -3.8538  -3.8387  -3.8172  -3.7961  -3.7863  -3.7667  -3.7509
    -3.3300  -3.3067  -3.2999  -3.2594  -3.2566  -3.2469  -3.2296  -3.1906
    -0.8583  -0.8038  -0.7447  -0.7142  -0.6773  -0.6328  -0.6222  -0.5533
    -0.4344  -0.3904  -0.2994  -0.2271  -0.1719  -0.1330  -0.1195  -0.1029
    -0.0639  -0.0429  -0.0283   0.0166   0.1592   0.2314   0.2974   0.3786
     0.4014   0.4286   0.4496   0.5112   0.5219   0.5525   0.5640   0.5972
     0.6358   0.7098   0.8254   0.8447   0.8853   0.9114   0.9193   0.9523
     0.9649   0.9797   1.0101   1.0304   1.0512   1.0605   1.0956   1.1127
     1.1370   1.1460   1.1658   1.1800   1.2170   1.2267   1.2441   1.2584
     1.2742   1.2904   1.3002   1.3190   1.3392   1.3540   1.3707   1.3753
     1.4155   1.4370   1.4459   1.4749   1.5049   1.5249   1.5353   1.5610
     1.6270   1.6541   1.6696   1.6876   1.7485   1.7601   1.8334   1.9681

          k = 0.1250 0.3703 0.1251 (310132 PWs)   bands (ev):

   -17.9574 -17.8939 -17.8893 -17.8591 -17.8465 -17.8349 -17.8237 -17.7951
   -15.7327 -15.7092 -15.6719 -15.6340 -15.6245 -15.6037 -15.5998 -15.5477
   -14.3390 -14.3297 -14.3016 -14.2980 -14.2920 -14.2913 -14.2867 -14.2798
   -14.2711 -14.2603 -14.2552 -14.2544 -14.2533 -14.2514 -14.2508 -14.2496
   -14.2418 -14.2417 -14.2411 -14.2405 -14.2380 -14.2341 -14.2264 -14.2246
   -14.2231 -14.2201 -14.2200 -14.2181 -14.2175 -14.2167 -14.2159 -14.2118
   -14.2013 -14.2009 -14.1990 -14.1924 -14.1917 -14.1897 -14.1859 -14.1792
    -9.8083  -9.7786  -9.7128  -9.6941  -9.6551  -9.6366  -9.5951  -9.5846
    -9.4761  -9.4473  -9.4048  -9.3911  -9.3546  -9.3313  -9.2976  -9.2881
    -9.2204  -9.1783  -9.1547  -9.1442  -9.1084  -9.0939  -9.0665  -9.0537
    -9.0352  -9.0255  -9.0049  -8.9745  -8.9681  -8.9445  -8.8969  -8.8720
    -7.8031  -7.7233  -7.6922  -7.6676  -7.6596  -7.6419  -7.6315  -7.6201
    -7.0980  -7.0837  -7.0725  -7.0287  -7.0224  -7.0009  -6.9916  -6.9230
    -5.7641  -5.5626  -5.4865  -5.3666  -5.3532  -5.3468  -5.3377  -5.3197
    -5.3082  -5.2982  -5.2862  -5.2617  -5.1484  -5.1132  -4.9068  -4.7316
    -3.8864  -3.8540  -3.8408  -3.8138  -3.7957  -3.7888  -3.7654  -3.7507
    -3.3302  -3.3056  -3.3009  -3.2577  -3.2567  -3.2490  -3.2295  -3.1909
    -0.8813  -0.8489  -0.7235  -0.7137  -0.6946  -0.6319  -0.5797  -0.5328
    -0.3860  -0.3475  -0.2862  -0.2032  -0.1647  -0.1358  -0.1226  -0.0956
    -0.0828  -0.0566  -0.0190   0.0142   0.1988   0.2490   0.3265   0.3541
     0.4032   0.4733   0.4908   0.5101   0.5263   0.5341   0.5501   0.6287
     0.6499   0.7092   0.7467   0.7713   0.8205   0.8676   0.9110   0.9306
     0.9598   1.0055   1.0166   1.0321   1.0558   1.0742   1.0850   1.1079
     1.1228   1.1409   1.1713   1.1909   1.2075   1.2262   1.2363   1.2662
     1.2755   1.2906   1.3060   1.3204   1.3336   1.3617   1.3824   1.4080
     1.4147   1.4371   1.4491   1.4701   1.4964   1.5088   1.5373   1.5571
     1.5826   1.6118   1.6430   1.6923   1.7189   1.7325   1.8569   1.9297

          k = 0.1250 0.3703 0.3752 (310212 PWs)   bands (ev):

   -17.9574 -17.8939 -17.8893 -17.8591 -17.8465 -17.8349 -17.8237 -17.7951
   -15.7327 -15.7092 -15.6718 -15.6340 -15.6243 -15.6038 -15.5999 -15.5477
   -14.3388 -14.3297 -14.3016 -14.2980 -14.2920 -14.2912 -14.2864 -14.2795
   -14.2709 -14.2601 -14.2552 -14.2549 -14.2533 -14.2512 -14.2508 -14.2499
   -14.2418 -14.2417 -14.2410 -14.2407 -14.2380 -14.2342 -14.2264 -14.2249
   -14.2231 -14.2202 -14.2200 -14.2181 -14.2175 -14.2167 -14.2159 -14.2118
   -14.2013 -14.2009 -14.1990 -14.1924 -14.1917 -14.1897 -14.1859 -14.1792
    -9.7922  -9.7670  -9.7159  -9.6895  -9.6609  -9.6532  -9.6218  -9.5886
    -9.4731  -9.4348  -9.4039  -9.3871  -9.3561  -9.3307  -9.3112  -9.2917
    -9.2414  -9.1657  -9.1504  -9.1193  -9.0948  -9.0859  -9.0702  -9.0520
    -9.0370  -9.0183  -9.0026  -8.9868  -8.9748  -8.9389  -8.9067  -8.8750
    -7.8031  -7.7233  -7.6913  -7.6684  -7.6583  -7.6418  -7.6334  -7.6200
    -7.0981  -7.0837  -7.0726  -7.0288  -7.0223  -7.0009  -6.9916  -6.9230
    -5.6529  -5.5048  -5.4846  -5.4248  -5.3574  -5.3496  -5.3390  -5.3248
    -5.3125  -5.2924  -5.2769  -5.2310  -5.2134  -5.0513  -5.0176  -4.8593
    -3.8855  -3.8533  -3.8393  -3.8155  -3.7972  -3.7868  -3.7668  -3.7507
    -3.3302  -3.3053  -3.3009  -3.2577  -3.2569  -3.2491  -3.2297  -3.1910
    -0.8468  -0.7243  -0.6637  -0.5918  -0.4683  -0.4298  -0.3603  -0.3442
    -0.2986  -0.2873  -0.2508  -0.2337  -0.1562  -0.1317  -0.1079  -0.0824
    -0.0733  -0.0493  -0.0257   0.0119   0.1258   0.2124   0.2286   0.2630
     0.3067   0.3278   0.3420   0.3791   0.4415   0.5186   0.5282   0.5672
     0.6150   0.6584   0.7222   0.7526   0.7823   0.8238   0.8279   0.8548
     0.8741   0.9310   0.9511   0.9936   0.9973   1.0430   1.0544   1.0892
     1.1284   1.1499   1.1585   1.1864   1.2169   1.2370   1.2445   1.2683
     1.2971   1.3140   1.3188   1.3387   1.3526   1.3720   1.3841   1.4000
     1.4086   1.4222   1.4548   1.4676   1.4839   1.4918   1.5267   1.5546
     1.5636   1.5930   1.6215   1.6569   1.6719   1.7001   1.7292   1.8130

          k = 0.3750 0.1234 0.1251 (310174 PWs)   bands (ev):

   -17.9573 -17.8939 -17.8895 -17.8591 -17.8465 -17.8349 -17.8237 -17.7951
   -15.7288 -15.7130 -15.6718 -15.6339 -15.6245 -15.6036 -15.6000 -15.5477
   -14.3387 -14.3298 -14.3016 -14.2980 -14.2920 -14.2917 -14.2871 -14.2802
   -14.2710 -14.2600 -14.2551 -14.2541 -14.2533 -14.2508 -14.2504 -14.2491
   -14.2427 -14.2418 -14.2411 -14.2405 -14.2380 -14.2334 -14.2264 -14.2253
   -14.2231 -14.2208 -14.2200 -14.2181 -14.2169 -14.2167 -14.2159 -14.2118
   -14.2013 -14.2009 -14.1990 -14.1924 -14.1917 -14.1897 -14.1859 -14.1792
    -9.7878  -9.7482  -9.7316  -9.7076  -9.6828  -9.6358  -9.5989  -9.5886
    -9.4957  -9.4654  -9.4017  -9.3651  -9.3477  -9.3212  -9.2807  -9.2512
    -9.2130  -9.1885  -9.1695  -9.1521  -9.1228  -9.1093  -9.0941  -9.0589
    -9.0211  -9.0078  -8.9902  -8.9776  -8.9547  -8.9400  -8.9121  -8.8749
    -7.8012  -7.7289  -7.6917  -7.6710  -7.6590  -7.6403  -7.6328  -7.6190
    -7.0969  -7.0837  -7.0723  -7.0290  -7.0222  -7.0008  -6.9910  -6.9230
    -5.7598  -5.5803  -5.4596  -5.3745  -5.3616  -5.3532  -5.3317  -5.3190
    -5.3014  -5.2977  -5.2769  -5.2644  -5.1642  -5.1177  -4.8938  -4.7264
    -3.8886  -3.8534  -3.8402  -3.8144  -3.7945  -3.7893  -3.7658  -3.7509
    -3.3292  -3.3062  -3.3001  -3.2585  -3.2561  -3.2446  -3.2333  -3.1926
    -0.8548  -0.8024  -0.7601  -0.7555  -0.6956  -0.6537  -0.6318  -0.5892
    -0.4406  -0.3284  -0.2626  -0.2091  -0.1536  -0.1348  -0.1089  -0.0939
    -0.0667  -0.0310  -0.0178   0.0097   0.1271   0.2432   0.3311   0.3939
     0.4229   0.4600   0.4667   0.5139   0.5271   0.5536   0.5769   0.6253
     0.6768   0.7021   0.7965   0.8318   0.8464   0.8727   0.9210   0.9369
     0.9587   0.9903   1.0095   1.0255   1.0451   1.0692   1.0791   1.1044
     1.1206   1.1507   1.1576   1.1935   1.2049   1.2220   1.2431   1.2620
     1.2660   1.2947   1.3078   1.3227   1.3408   1.3568   1.3857   1.4054
     1.4408   1.4459   1.4699   1.4897   1.5017   1.5179   1.5596   1.5845
     1.6170   1.6250   1.6394   1.6674   1.6962   1.7305   1.8291   1.9133

          k = 0.3750 0.1234 0.3752 (310218 PWs)   bands (ev):

   -17.9573 -17.8939 -17.8895 -17.8591 -17.8465 -17.8349 -17.8237 -17.7951
   -15.7288 -15.7130 -15.6718 -15.6339 -15.6244 -15.6036 -15.6001 -15.5477
   -14.3386 -14.3298 -14.3016 -14.2980 -14.2920 -14.2916 -14.2868 -14.2799
   -14.2707 -14.2599 -14.2551 -14.2546 -14.2533 -14.2508 -14.2501 -14.2494
   -14.2428 -14.2418 -14.2410 -14.2407 -14.2380 -14.2336 -14.2264 -14.2255
   -14.2231 -14.2210 -14.2200 -14.2181 -14.2169 -14.2167 -14.2159 -14.2118
   -14.2013 -14.2009 -14.1990 -14.1924 -14.1917 -14.1897 -14.1859 -14.1792
    -9.7724  -9.7414  -9.7191  -9.7034  -9.6860  -9.6589  -9.6286  -9.5943
    -9.4697  -9.4591  -9.4154  -9.3890  -9.3374  -9.3143  -9.2946  -9.2741
    -9.2164  -9.2003  -9.1462  -9.1253  -9.1059  -9.0944  -9.0768  -9.0577
    -9.0282  -9.0150  -8.9913  -8.9751  -8.9626  -8.9472  -8.9155  -8.8804
    -7.8011  -7.7290  -7.6908  -7.6715  -7.6574  -7.6411  -7.6346  -7.6197
    -7.0970  -7.0837  -7.0722  -7.0291  -7.0220  -7.0007  -6.9911  -6.9229
    -5.6485  -5.4943  -5.4691  -5.4457  -5.3728  -5.3544  -5.3343  -5.3264
    -5.3027  -5.2966  -5.2765  -5.2627  -5.1905  -5.0419  -5.0103  -4.8563
    -3.8876  -3.8526  -3.8390  -3.8168  -3.7938  -3.7890  -3.7675  -3.7510
    -3.3292  -3.3061  -3.3000  -3.2581  -3.2561  -3.2445  -3.2334  -3.1924
    -0.7827  -0.7597  -0.6963  -0.6610  -0.5032  -0.4587  -0.4109  -0.3524
    -0.3300  -0.2646  -0.2437  -0.1901  -0.1539  -0.1320  -0.1023  -0.0830
    -0.0591  -0.0451  -0.0130   0.0053   0.1048   0.2026   0.2320   0.2625
     0.3115   0.3203   0.3677   0.4192   0.4452   0.4784   0.5175   0.5337
     0.6530   0.7157   0.7492   0.7715   0.8170   0.8286   0.8471   0.8761
     0.9274   0.9449   0.9617   0.9777   1.0037   1.0427   1.0589   1.0833
     1.1149   1.1310   1.1638   1.1835   1.2063   1.2276   1.2467   1.2740
     1.2890   1.2997   1.3245   1.3364   1.3524   1.3578   1.3729   1.3993
     1.4144   1.4325   1.4525   1.4833   1.4897   1.5156   1.5348   1.5582
     1.5729   1.5909   1.6237   1.6615   1.6696   1.7104   1.7436   1.7859

          k = 0.3750 0.3703 0.1251 (310210 PWs)   bands (ev):

   -17.9573 -17.8939 -17.8895 -17.8590 -17.8465 -17.8349 -17.8237 -17.7951
   -15.7288 -15.7130 -15.6718 -15.6339 -15.6245 -15.6036 -15.6000 -15.5477
   -14.3387 -14.3296 -14.3016 -14.2980 -14.2920 -14.2916 -14.2867 -14.2798
   -14.2708 -14.2602 -14.2552 -14.2544 -14.2533 -14.2508 -14.2504 -14.2496
   -14.2429 -14.2418 -14.2411 -14.2402 -14.2380 -14.2334 -14.2264 -14.2246
   -14.2231 -14.2205 -14.2200 -14.2183 -14.2181 -14.2167 -14.2160 -14.2118
   -14.2013 -14.2009 -14.1990 -14.1924 -14.1917 -14.1897 -14.1859 -14.1792
    -9.7843  -9.7517  -9.7286  -9.7071  -9.6822  -9.6367  -9.5990  -9.5874
    -9.4846  -9.4514  -9.4076  -9.3832  -9.3507  -9.3419  -9.2856  -9.2773
    -9.2142  -9.1895  -9.1588  -9.1367  -9.1230  -9.0982  -9.0752  -9.0544
    -9.0256  -8.9996  -8.9888  -8.9703  -8.9550  -8.9393  -8.9190  -8.8906
    -7.8005  -7.7280  -7.6921  -7.6678  -7.6596  -7.6428  -7.6316  -7.6201
    -7.0969  -7.0835  -7.0723  -7.0284  -7.0223  -7.0014  -6.9911  -6.9230
    -5.6495  -5.4828  -5.4619  -5.4416  -5.3746  -5.3596  -5.3334  -5.3235
    -5.3050  -5.2944  -5.2710  -5.2451  -5.2092  -5.0526  -5.0231  -4.8664
    -3.8871  -3.8535  -3.8403  -3.8139  -3.7940  -3.7906  -3.7657  -3.7509
    -3.3293  -3.3057  -3.3001  -3.2588  -3.2551  -3.2460  -3.2332  -3.1928
    -0.8475  -0.7354  -0.6828  -0.6154  -0.5452  -0.4424  -0.3867  -0.3437
    -0.2943  -0.2494  -0.2112  -0.1757  -0.1398  -0.1076  -0.0950  -0.0857
    -0.0696  -0.0352  -0.0265   0.0014   0.0577   0.1959   0.2322   0.2510
     0.3338   0.3582   0.4168   0.4466   0.4804   0.4920   0.5274   0.5537
     0.5978   0.6775   0.7021   0.7252   0.7895   0.8189   0.8573   0.8850
     0.9181   0.9408   0.9653   0.9815   1.0175   1.0409   1.0799   1.0920
     1.1058   1.1255   1.1440   1.1610   1.1832   1.2201   1.2349   1.2574
     1.2839   1.2967   1.3145   1.3211   1.3465   1.3635   1.3840   1.4021
     1.4180   1.4509   1.4633   1.4855   1.4978   1.5178   1.5372   1.5552
     1.5772   1.5939   1.6220   1.6338   1.6496   1.6633   1.6954   1.7315

          k = 0.3750 0.3703 0.3752 (310186 PWs)   bands (ev):

   -17.9573 -17.8939 -17.8895 -17.8590 -17.8465 -17.8349 -17.8237 -17.7951
   -15.7288 -15.7130 -15.6718 -15.6339 -15.6244 -15.6036 -15.6001 -15.5477
   -14.3386 -14.3296 -14.3016 -14.2980 -14.2920 -14.2915 -14.2864 -14.2795
   -14.2706 -14.2600 -14.2552 -14.2548 -14.2533 -14.2508 -14.2501 -14.2499
   -14.2429 -14.2418 -14.2410 -14.2404 -14.2380 -14.2336 -14.2264 -14.2249
   -14.2231 -14.2206 -14.2200 -14.2183 -14.2181 -14.2167 -14.2160 -14.2118
   -14.2013 -14.2009 -14.1990 -14.1924 -14.1917 -14.1897 -14.1859 -14.1792
    -9.7698  -9.7418  -9.7187  -9.7027  -9.6862  -9.6591  -9.6279  -9.5920
    -9.4645  -9.4422  -9.4049  -9.3861  -9.3745  -9.3377  -9.3209  -9.2789
    -9.2244  -9.1647  -9.1459  -9.1209  -9.1019  -9.0882  -9.0712  -9.0564
    -9.0272  -9.0049  -8.9867  -8.9750  -8.9578  -8.9454  -8.9227  -8.8953
    -7.8003  -7.7280  -7.6911  -7.6687  -7.6577  -7.6436  -7.6336  -7.6205
    -7.0970  -7.0835  -7.0722  -7.0285  -7.0222  -7.0014  -6.9911  -6.9229
    -5.5422  -5.4645  -5.4017  -5.3773  -5.3641  -5.3555  -5.3327  -5.3163
    -5.3125  -5.2975  -5.2849  -5.2651  -5.1952  -5.1526  -5.1383  -4.9927
    -3.8861  -3.8526  -3.8390  -3.8155  -3.7935  -3.7904  -3.7673  -3.7509
    -3.3294  -3.3058  -3.2999  -3.2587  -3.2551  -3.2460  -3.2332  -3.1928
    -0.5648  -0.5044  -0.4633  -0.4168  -0.3988  -0.3437  -0.3230  -0.3031
    -0.2852  -0.2306  -0.2225  -0.1733  -0.1356  -0.1284  -0.0969  -0.0776
    -0.0630  -0.0442  -0.0169   0.0011   0.0578   0.1676   0.1858   0.2031
     0.2518   0.2766   0.2891   0.3148   0.3464   0.3892   0.4324   0.4917
     0.6353   0.7021   0.7226   0.7625   0.7904   0.8042   0.8280   0.8472
     0.8799   0.8879   0.9053   0.9265   0.9630   0.9819   1.0138   1.0230
     1.0608   1.0666   1.0967   1.1069   1.1204   1.1523   1.1719   1.1887
     1.2809   1.3029   1.3323   1.3477   1.3622   1.3744   1.3931   1.4003
     1.4175   1.4350   1.4527   1.4712   1.4857   1.5090   1.5306   1.5477
     1.5528   1.5737   1.5958   1.6079   1.6270   1.6393   1.6762   1.6897

          k =-0.1250-0.1234 0.1251 (310206 PWs)   bands (ev):

   -17.9574 -17.8939 -17.8893 -17.8591 -17.8465 -17.8349 -17.8237 -17.7951
   -15.7327 -15.7092 -15.6719 -15.6340 -15.6244 -15.6037 -15.5998 -15.5477
   -14.3390 -14.3299 -14.3016 -14.2980 -14.2920 -14.2914 -14.2871 -14.2802
   -14.2712 -14.2601 -14.2551 -14.2542 -14.2533 -14.2513 -14.2508 -14.2492
   -14.2418 -14.2415 -14.2411 -14.2408 -14.2380 -14.2342 -14.2264 -14.2250
   -14.2231 -14.2204 -14.2200 -14.2181 -14.2167 -14.2164 -14.2158 -14.2118
   -14.2013 -14.2009 -14.1990 -14.1924 -14.1917 -14.1897 -14.1859 -14.1792
    -9.8145  -9.7723  -9.7152  -9.6933  -9.6548  -9.6378  -9.5971  -9.5828
    -9.4922  -9.4647  -9.4077  -9.3712  -9.3362  -9.3223  -9.2801  -9.2400
    -9.2271  -9.1846  -9.1681  -9.1531  -9.1249  -9.1071  -9.0839  -9.0576
    -9.0479  -9.0210  -8.9998  -8.9850  -8.9617  -8.9474  -8.8921  -8.8529
    -7.8040  -7.7242  -7.6918  -7.6714  -7.6585  -7.6394  -7.6324  -7.6188
    -7.0982  -7.0837  -7.0726  -7.0292  -7.0222  -7.0003  -6.9916  -6.9229
    -5.8785  -5.4901  -5.4702  -5.4261  -5.4063  -5.3547  -5.3456  -5.3315
    -5.3204  -5.2993  -5.2898  -5.2661  -5.0398  -4.9907  -4.9804  -4.5897
    -3.8881  -3.8545  -3.8397  -3.8149  -3.7959  -3.7875  -3.7653  -3.7506
    -3.3301  -3.3073  -3.3001  -3.2588  -3.2569  -3.2468  -3.2293  -3.1907
    -0.9008  -0.8555  -0.8051  -0.7518  -0.7346  -0.7087  -0.6834  -0.6526
    -0.6148  -0.5944  -0.5340  -0.4948  -0.1821  -0.1534  -0.1198  -0.1152
    -0.0772  -0.0507  -0.0185   0.0194   0.3552   0.4211   0.4523   0.4771
     0.4981   0.5080   0.5253   0.5682   0.5818   0.6301   0.6669   0.7511
     0.7653   0.8135   0.8246   0.8639   0.8778   0.9235   0.9446   0.9697
     0.9890   1.0107   1.0270   1.0440   1.0545   1.0729   1.0968   1.1101
     1.1299   1.1366   1.1651   1.1760   1.1944   1.2096   1.2331   1.2470
     1.2641   1.2797   1.2994   1.3089   1.3240   1.3380   1.3669   1.3950
     1.4247   1.4408   1.4517   1.4842   1.5032   1.5265   1.5774   1.6002
     1.6608   1.6938   1.7142   1.7498   1.7993   1.8375   1.8683   2.1093

          k =-0.1250 0.1234-0.1251 (310206 PWs)   bands (ev):

   -17.9574 -17.8939 -17.8893 -17.8591 -17.8465 -17.8349 -17.8237 -17.7951
   -15.7327 -15.7092 -15.6719 -15.6340 -15.6244 -15.6037 -15.5998 -15.5477
   -14.3390 -14.3299 -14.3016 -14.2980 -14.2920 -14.2914 -14.2871 -14.2802
   -14.2712 -14.2601 -14.2551 -14.2542 -14.2533 -14.2513 -14.2508 -14.2492
   -14.2418 -14.2415 -14.2411 -14.2408 -14.2380 -14.2342 -14.2264 -14.2250
   -14.2231 -14.2204 -14.2200 -14.2181 -14.2167 -14.2164 -14.2158 -14.2118
   -14.2013 -14.2009 -14.1990 -14.1924 -14.1917 -14.1897 -14.1859 -14.1792
    -9.8155  -9.7717  -9.7166  -9.6921  -9.6547  -9.6368  -9.5960  -9.5832
    -9.4830  -9.4712  -9.4133  -9.3764  -9.3420  -9.3079  -9.2792  -9.2433
    -9.2225  -9.1931  -9.1682  -9.1536  -9.1168  -9.1051  -9.0877  -9.0585
    -9.0486  -9.0205  -9.0041  -8.9772  -8.9651  -8.9472  -8.8920  -8.8534
    -7.8039  -7.7242  -7.6918  -7.6712  -7.6584  -7.6397  -7.6324  -7.6190
    -7.0981  -7.0838  -7.0726  -7.0292  -7.0222  -7.0003  -6.9916  -6.9230
    -5.8784  -5.4929  -5.4680  -5.4293  -5.4065  -5.3506  -5.3457  -5.3322
    -5.3203  -5.2991  -5.2875  -5.2663  -5.0408  -4.9900  -4.9813  -4.5903
    -3.8879  -3.8543  -3.8403  -3.8144  -3.7960  -3.7876  -3.7653  -3.7505
    -3.3300  -3.3073  -3.2998  -3.2594  -3.2568  -3.2466  -3.2293  -3.1907
    -0.8812  -0.8533  -0.8022  -0.7543  -0.7333  -0.7128  -0.6883  -0.6644
    -0.6198  -0.5960  -0.5355  -0.4973  -0.1847  -0.1622  -0.1195  -0.1137
    -0.0761  -0.0467  -0.0157   0.0176   0.3542   0.4265   0.4484   0.4789
     0.4965   0.5143   0.5352   0.5673   0.5844   0.6321   0.6803   0.7302
     0.7546   0.8100   0.8441   0.8704   0.9109   0.9290   0.9506   0.9586
     0.9898   0.9942   1.0138   1.0377   1.0504   1.0677   1.0888   1.1093
     1.1253   1.1391   1.1623   1.1854   1.1983   1.2131   1.2352   1.2579
     1.2599   1.2748   1.2881   1.3105   1.3181   1.3324   1.3612   1.4059
     1.4214   1.4430   1.4649   1.4798   1.5087   1.5258   1.5785   1.5994
     1.6678   1.7023   1.7121   1.7650   1.7827   1.8293   1.8645   2.0926

          k = 0.1250-0.1234-0.1251 (310206 PWs)   bands (ev):

   -17.9574 -17.8939 -17.8893 -17.8591 -17.8465 -17.8349 -17.8237 -17.7951
   -15.7327 -15.7092 -15.6719 -15.6340 -15.6244 -15.6037 -15.5998 -15.5477
   -14.3390 -14.3299 -14.3016 -14.2980 -14.2920 -14.2914 -14.2871 -14.2802
   -14.2712 -14.2601 -14.2551 -14.2542 -14.2533 -14.2513 -14.2508 -14.2492
   -14.2418 -14.2415 -14.2411 -14.2408 -14.2380 -14.2342 -14.2264 -14.2250
   -14.2231 -14.2204 -14.2200 -14.2181 -14.2167 -14.2164 -14.2158 -14.2118
   -14.2013 -14.2009 -14.1990 -14.1924 -14.1917 -14.1897 -14.1859 -14.1792
    -9.8149  -9.7710  -9.7176  -9.6922  -9.6549  -9.6368  -9.5966  -9.5852
    -9.4918  -9.4597  -9.4095  -9.3765  -9.3349  -9.3189  -9.2757  -9.2476
    -9.2235  -9.1916  -9.1730  -9.1466  -9.1173  -9.1096  -9.0838  -9.0632
    -9.0467  -9.0178  -9.0026  -8.9789  -8.9644  -8.9480  -8.8919  -8.8534
    -7.8040  -7.7242  -7.6919  -7.6711  -7.6588  -7.6392  -7.6326  -7.6187
    -7.0981  -7.0838  -7.0726  -7.0292  -7.0222  -7.0003  -6.9916  -6.9229
    -5.8786  -5.4927  -5.4697  -5.4280  -5.4029  -5.3517  -5.3454  -5.3330
    -5.3178  -5.3006  -5.2892  -5.2682  -5.0394  -4.9914  -4.9802  -4.5903
    -3.8880  -3.8541  -3.8406  -3.8143  -3.7959  -3.7876  -3.7654  -3.7505
    -3.3301  -3.3076  -3.2999  -3.2592  -3.2569  -3.2464  -3.2292  -3.1906
    -0.8976  -0.8321  -0.8066  -0.7587  -0.7318  -0.7156  -0.6860  -0.6592
    -0.6210  -0.5959  -0.5353  -0.4963  -0.1877  -0.1605  -0.1241  -0.1103
    -0.0772  -0.0456  -0.0159   0.0177   0.3543   0.4266   0.4474   0.4802
     0.4976   0.5126   0.5316   0.5618   0.5829   0.6448   0.6867   0.7418
     0.7668   0.7925   0.8382   0.8637   0.8964   0.9279   0.9506   0.9602
     0.9788   1.0048   1.0098   1.0277   1.0579   1.0753   1.0991   1.1084
     1.1213   1.1482   1.1703   1.1785   1.1981   1.2119   1.2242   1.2553
     1.2651   1.2818   1.2919   1.3045   1.3225   1.3396   1.3583   1.3995
     1.4281   1.4494   1.4552   1.4780   1.5054   1.5302   1.5753   1.5978
     1.6706   1.6965   1.7125   1.7646   1.7822   1.8338   1.8612   2.0957

          k =-0.1250-0.1234 0.3752 (310167 PWs)   bands (ev):

   -17.9574 -17.8939 -17.8893 -17.8591 -17.8465 -17.8349 -17.8237 -17.7951
   -15.7327 -15.7092 -15.6718 -15.6340 -15.6243 -15.6038 -15.5999 -15.5477
   -14.3388 -14.3299 -14.3016 -14.2980 -14.2920 -14.2913 -14.2868 -14.2799
   -14.2710 -14.2599 -14.2551 -14.2547 -14.2533 -14.2511 -14.2508 -14.2495
   -14.2418 -14.2416 -14.2410 -14.2410 -14.2380 -14.2343 -14.2264 -14.2253
   -14.2231 -14.2206 -14.2200 -14.2181 -14.2167 -14.2164 -14.2158 -14.2118
   -14.2013 -14.2009 -14.1990 -14.1924 -14.1917 -14.1897 -14.1859 -14.1792
    -9.7955  -9.7649  -9.7179  -9.6887  -9.6613  -9.6535  -9.6231  -9.5887
    -9.4909  -9.4384  -9.4084  -9.3749  -9.3435  -9.3193  -9.2956  -9.2594
    -9.2333  -9.1978  -9.1532  -9.1237  -9.1081  -9.0874  -9.0735  -9.0543
    -9.0421  -9.0217  -9.0038  -8.9914  -8.9767  -8.9504  -8.8998  -8.8554
    -7.8041  -7.7243  -7.6909  -7.6717  -7.6579  -7.6391  -7.6341  -7.6188
    -7.0982  -7.0837  -7.0727  -7.0293  -7.0221  -7.0003  -6.9916  -6.9229
    -5.7636  -5.5881  -5.4854  -5.3639  -5.3541  -5.3445  -5.3290  -5.3254
    -5.3126  -5.2922  -5.2805  -5.2527  -5.1544  -5.1177  -4.8970  -4.7202
    -3.8870  -3.8536  -3.8385  -3.8175  -3.7964  -3.7858  -3.7669  -3.7509
    -3.3300  -3.3069  -3.3000  -3.2592  -3.2566  -3.2469  -3.2296  -3.1906
    -0.8608  -0.8058  -0.7428  -0.7144  -0.6711  -0.6429  -0.6139  -0.5582
    -0.4369  -0.3789  -0.3074  -0.2224  -0.1563  -0.1354  -0.1247  -0.1009
    -0.0660  -0.0482  -0.0268   0.0226   0.1461   0.2335   0.2885   0.3774
     0.4063   0.4398   0.4510   0.4996   0.5196   0.5590   0.5725   0.5961
     0.6332   0.6929   0.8218   0.8363   0.8745   0.9120   0.9305   0.9496
     0.9744   0.9877   1.0032   1.0225   1.0619   1.0737   1.0996   1.1045
     1.1400   1.1467   1.1735   1.1883   1.2135   1.2216   1.2449   1.2636
     1.2732   1.2844   1.2978   1.3105   1.3387   1.3537   1.3703   1.3873
     1.4130   1.4357   1.4398   1.4787   1.5023   1.5293   1.5421   1.5555
     1.6298   1.6518   1.6675   1.6832   1.7455   1.7657   1.8335   1.9674

          k =-0.1250 0.1234-0.3752 (310167 PWs)   bands (ev):

   -17.9574 -17.8939 -17.8893 -17.8591 -17.8465 -17.8349 -17.8237 -17.7951
   -15.7327 -15.7092 -15.6718 -15.6340 -15.6243 -15.6038 -15.5999 -15.5477
   -14.3388 -14.3299 -14.3016 -14.2980 -14.2920 -14.2913 -14.2868 -14.2799
   -14.2710 -14.2599 -14.2551 -14.2547 -14.2533 -14.2511 -14.2508 -14.2495
   -14.2418 -14.2416 -14.2410 -14.2410 -14.2380 -14.2343 -14.2264 -14.2253
   -14.2231 -14.2206 -14.2200 -14.2181 -14.2167 -14.2164 -14.2158 -14.2118
   -14.2013 -14.2009 -14.1990 -14.1924 -14.1917 -14.1897 -14.1859 -14.1792
    -9.7965  -9.7646  -9.7173  -9.6901  -9.6627  -9.6510  -9.6214  -9.5900
    -9.4788  -9.4510  -9.4112  -9.3728  -9.3465  -9.3172  -9.2904  -9.2648
    -9.2312  -9.2021  -9.1504  -9.1239  -9.0992  -9.0883  -9.0793  -9.0548
    -9.0427  -9.0247  -8.9982  -8.9917  -8.9758  -8.9527  -8.8993  -8.8557
    -7.8040  -7.7242  -7.6910  -7.6716  -7.6575  -7.6397  -7.6340  -7.6192
    -7.0981  -7.0838  -7.0726  -7.0294  -7.0221  -7.0002  -6.9916  -6.9229
    -5.7632  -5.5894  -5.4848  -5.3712  -5.3526  -5.3417  -5.3324  -5.3215
    -5.3110  -5.2909  -5.2752  -5.2558  -5.1578  -5.1151  -4.8980  -4.7208
    -3.8869  -3.8536  -3.8387  -3.8172  -3.7967  -3.7858  -3.7669  -3.7508
    -3.3299  -3.3069  -3.2996  -3.2599  -3.2565  -3.2467  -3.2296  -3.1907
    -0.8396  -0.7914  -0.7571  -0.7208  -0.6738  -0.6373  -0.6303  -0.5603
    -0.4419  -0.3858  -0.3056  -0.2244  -0.1625  -0.1424  -0.1215  -0.1012
    -0.0602  -0.0394  -0.0314   0.0188   0.1502   0.2399   0.2907   0.3774
     0.4127   0.4331   0.4508   0.5058   0.5223   0.5560   0.5711   0.5925
     0.6496   0.6894   0.8207   0.8446   0.8852   0.9083   0.9328   0.9424
     0.9771   0.9937   1.0210   1.0292   1.0494   1.0586   1.0850   1.0994
     1.1234   1.1416   1.1792   1.1894   1.2194   1.2363   1.2413   1.2525
     1.2756   1.2812   1.3009   1.3107   1.3328   1.3471   1.3607   1.3929
     1.4162   1.4349   1.4495   1.4754   1.5101   1.5258   1.5493   1.5632
     1.6371   1.6624   1.6667   1.6913   1.7451   1.7703   1.8114   1.9414

          k = 0.1250-0.1234-0.3752 (310167 PWs)   bands (ev):

   -17.9574 -17.8939 -17.8893 -17.8591 -17.8465 -17.8349 -17.8237 -17.7951
   -15.7327 -15.7092 -15.6718 -15.6340 -15.6243 -15.6038 -15.5999 -15.5477
   -14.3388 -14.3299 -14.3016 -14.2980 -14.2920 -14.2913 -14.2868 -14.2799
   -14.2710 -14.2599 -14.2551 -14.2547 -14.2533 -14.2511 -14.2508 -14.2495
   -14.2418 -14.2416 -14.2410 -14.2410 -14.2380 -14.2343 -14.2264 -14.2253
   -14.2231 -14.2206 -14.2200 -14.2181 -14.2167 -14.2164 -14.2158 -14.2118
   -14.2013 -14.2009 -14.1990 -14.1924 -14.1917 -14.1897 -14.1859 -14.1792
    -9.7955  -9.7637  -9.7195  -9.6892  -9.6624  -9.6515  -9.6230  -9.5909
    -9.4877  -9.4334  -9.4087  -9.3768  -9.3472  -9.3256  -9.2815  -9.2621
    -9.2428  -9.1984  -9.1513  -9.1157  -9.1100  -9.0885  -9.0784  -9.0546
    -9.0419  -9.0198  -9.0004  -8.9914  -8.9764  -8.9529  -8.8994  -8.8557
    -7.8041  -7.7243  -7.6910  -7.6715  -7.6579  -7.6391  -7.6343  -7.6189
    -7.0981  -7.0837  -7.0727  -7.0294  -7.0221  -7.0002  -6.9917  -6.9229
    -5.7639  -5.5887  -5.4851  -5.3670  -5.3502  -5.3425  -5.3307  -5.3221
    -5.3104  -5.2936  -5.2788  -5.2614  -5.1522  -5.1159  -4.8980  -4.7207
    -3.8869  -3.8533  -3.8391  -3.8170  -3.7966  -3.7859  -3.7670  -3.7508
    -3.3301  -3.3073  -3.2997  -3.2596  -3.2566  -3.2465  -3.2295  -3.1905
    -0.8415  -0.7922  -0.7541  -0.7230  -0.6770  -0.6418  -0.6270  -0.5610
    -0.4298  -0.3852  -0.3029  -0.2240  -0.1660  -0.1408  -0.1256  -0.0999
    -0.0639  -0.0445  -0.0260   0.0195   0.1511   0.2253   0.2981   0.3787
     0.4126   0.4415   0.4495   0.5066   0.5247   0.5546   0.5716   0.5963
     0.6421   0.6913   0.8119   0.8374   0.8876   0.9150   0.9291   0.9472
     0.9735   0.9949   1.0083   1.0208   1.0451   1.0777   1.0977   1.1128
     1.1205   1.1439   1.1694   1.1902   1.2185   1.2268   1.2372   1.2420
     1.2767   1.2875   1.3106   1.3236   1.3326   1.3532   1.3578   1.3913
     1.4101   1.4350   1.4499   1.4788   1.5085   1.5219   1.5449   1.5648
     1.6313   1.6581   1.6686   1.6924   1.7486   1.7695   1.8118   1.9433

          k =-0.1250-0.3703 0.1251 (310132 PWs)   bands (ev):

   -17.9574 -17.8939 -17.8893 -17.8591 -17.8465 -17.8349 -17.8237 -17.7951
   -15.7327 -15.7092 -15.6719 -15.6340 -15.6245 -15.6037 -15.5998 -15.5477
   -14.3390 -14.3297 -14.3016 -14.2980 -14.2920 -14.2913 -14.2867 -14.2798
   -14.2711 -14.2603 -14.2552 -14.2544 -14.2533 -14.2514 -14.2508 -14.2496
   -14.2418 -14.2417 -14.2411 -14.2405 -14.2380 -14.2341 -14.2264 -14.2246
   -14.2231 -14.2201 -14.2200 -14.2181 -14.2175 -14.2167 -14.2159 -14.2118
   -14.2013 -14.2009 -14.1990 -14.1924 -14.1917 -14.1897 -14.1859 -14.1792
    -9.8080  -9.7785  -9.7116  -9.6945  -9.6552  -9.6378  -9.5957  -9.5845
    -9.4817  -9.4470  -9.4042  -9.3827  -9.3599  -9.3228  -9.3048  -9.2789
    -9.2229  -9.1804  -9.1649  -9.1434  -9.1093  -9.0871  -9.0677  -9.0489
    -9.0397  -9.0256  -9.0031  -8.9770  -8.9677  -8.9444  -8.8974  -8.8706
    -7.8032  -7.7234  -7.6922  -7.6680  -7.6591  -7.6421  -7.6314  -7.6199
    -7.0980  -7.0837  -7.0726  -7.0286  -7.0224  -7.0009  -6.9916  -6.9230
    -5.7640  -5.5631  -5.4859  -5.3628  -5.3593  -5.3484  -5.3401  -5.3212
    -5.3096  -5.2984  -5.2816  -5.2543  -5.1493  -5.1153  -4.9064  -4.7321
    -3.8864  -3.8541  -3.8405  -3.8140  -3.7963  -3.7880  -3.7655  -3.7508
    -3.3303  -3.3058  -3.3010  -3.2575  -3.2566  -3.2489  -3.2294  -3.1909
    -0.8945  -0.8369  -0.7353  -0.7071  -0.6822  -0.6341  -0.5770  -0.5360
    -0.3861  -0.3533  -0.2871  -0.2052  -0.1563  -0.1295  -0.1191  -0.1036
    -0.0810  -0.0605  -0.0175   0.0131   0.1988   0.2492   0.3278   0.3622
     0.3935   0.4710   0.4964   0.5136   0.5156   0.5311   0.5583   0.6226
     0.6561   0.6908   0.7435   0.7782   0.8256   0.8610   0.9057   0.9400
     0.9549   1.0031   1.0176   1.0440   1.0518   1.0641   1.0816   1.1090
     1.1262   1.1458   1.1812   1.1892   1.2134   1.2263   1.2449   1.2527
     1.2866   1.2983   1.3075   1.3166   1.3269   1.3494   1.3834   1.4100
     1.4202   1.4286   1.4560   1.4678   1.5003   1.5167   1.5223   1.5559
     1.5945   1.6102   1.6443   1.6924   1.7150   1.7290   1.8566   1.9300

          k =-0.1250 0.3703-0.1251 (310132 PWs)   bands (ev):

   -17.9574 -17.8939 -17.8893 -17.8591 -17.8465 -17.8349 -17.8237 -17.7951
   -15.7327 -15.7092 -15.6719 -15.6340 -15.6245 -15.6037 -15.5998 -15.5477
   -14.3390 -14.3297 -14.3016 -14.2980 -14.2920 -14.2913 -14.2867 -14.2798
   -14.2711 -14.2603 -14.2552 -14.2544 -14.2533 -14.2514 -14.2508 -14.2496
   -14.2418 -14.2417 -14.2411 -14.2405 -14.2380 -14.2341 -14.2264 -14.2246
   -14.2231 -14.2201 -14.2200 -14.2181 -14.2175 -14.2167 -14.2159 -14.2118
   -14.2013 -14.2009 -14.1990 -14.1924 -14.1917 -14.1897 -14.1859 -14.1792
    -9.8087  -9.7783  -9.7143  -9.6921  -9.6537  -9.6373  -9.5947  -9.5867
    -9.4745  -9.4463  -9.4121  -9.3854  -9.3618  -9.3197  -9.3076  -9.2794
    -9.2193  -9.1770  -9.1648  -9.1447  -9.1132  -9.0786  -9.0697  -9.0542
    -9.0398  -9.0236  -9.0040  -8.9778  -8.9646  -8.9454  -8.8970  -8.8714
    -7.8030  -7.7234  -7.6923  -7.6677  -7.6591  -7.6422  -7.6316  -7.6201
    -7.0978  -7.0838  -7.0725  -7.0287  -7.0224  -7.0008  -6.9916  -6.9230
    -5.7638  -5.5638  -5.4861  -5.3689  -5.3596  -5.3462  -5.3383  -5.3226
    -5.3101  -5.2954  -5.2784  -5.2517  -5.1505  -5.1176  -4.9057  -4.7333
    -3.8863  -3.8538  -3.8409  -3.8139  -3.7961  -3.7884  -3.7655  -3.7507
    -3.3302  -3.3058  -3.3006  -3.2576  -3.2572  -3.2486  -3.2294  -3.1910
    -0.8787  -0.8472  -0.7216  -0.7045  -0.6919  -0.6336  -0.5727  -0.5347
    -0.3932  -0.3653  -0.2977  -0.2147  -0.1586  -0.1428  -0.1248  -0.1022
    -0.0799  -0.0591  -0.0173   0.0150   0.2116   0.2691   0.3379   0.3652
     0.4113   0.4726   0.4905   0.5040   0.5238   0.5320   0.5557   0.6234
     0.6432   0.7009   0.7389   0.7765   0.8326   0.8544   0.9141   0.9329
     0.9661   0.9922   1.0020   1.0275   1.0559   1.0791   1.0934   1.1070
     1.1304   1.1403   1.1825   1.1951   1.2113   1.2308   1.2396   1.2573
     1.2707   1.2858   1.3002   1.3266   1.3377   1.3502   1.3843   1.4105
     1.4206   1.4299   1.4444   1.4747   1.4993   1.5143   1.5279   1.5698
     1.5795   1.6147   1.6401   1.6961   1.7120   1.7316   1.8629   1.9111

          k = 0.1250-0.3703-0.1251 (310132 PWs)   bands (ev):

   -17.9574 -17.8939 -17.8893 -17.8591 -17.8465 -17.8349 -17.8237 -17.7951
   -15.7327 -15.7092 -15.6719 -15.6340 -15.6245 -15.6037 -15.5998 -15.5477
   -14.3390 -14.3297 -14.3016 -14.2980 -14.2920 -14.2913 -14.2867 -14.2798
   -14.2711 -14.2603 -14.2552 -14.2544 -14.2533 -14.2514 -14.2508 -14.2496
   -14.2418 -14.2417 -14.2411 -14.2405 -14.2380 -14.2341 -14.2264 -14.2246
   -14.2231 -14.2201 -14.2200 -14.2181 -14.2175 -14.2167 -14.2159 -14.2118
   -14.2013 -14.2009 -14.1990 -14.1924 -14.1917 -14.1897 -14.1859 -14.1792
    -9.8087  -9.7770  -9.7144  -9.6929  -9.6554  -9.6368  -9.5950  -9.5870
    -9.4804  -9.4390  -9.4115  -9.3899  -9.3539  -9.3157  -9.3083  -9.2796
    -9.2266  -9.1889  -9.1560  -9.1424  -9.1094  -9.0854  -9.0659  -9.0580
    -9.0380  -9.0223  -9.0024  -8.9772  -8.9656  -8.9455  -8.8972  -8.8713
    -7.8031  -7.7235  -7.6923  -7.6676  -7.6594  -7.6419  -7.6317  -7.6198
    -7.0979  -7.0838  -7.0726  -7.0287  -7.0224  -7.0008  -6.9916  -6.9230
    -5.7643  -5.5635  -5.4865  -5.3721  -5.3555  -5.3438  -5.3360  -5.3199
    -5.3052  -5.3006  -5.2814  -5.2594  -5.1489  -5.1155  -4.9062  -4.7330
    -3.8863  -3.8538  -3.8411  -3.8138  -3.7962  -3.7882  -3.7655  -3.7507
    -3.3303  -3.3062  -3.3006  -3.2575  -3.2571  -3.2484  -3.2294  -3.1908
    -0.8931  -0.8309  -0.7298  -0.7113  -0.6779  -0.6318  -0.5769  -0.5310
    -0.3939  -0.3613  -0.2961  -0.2140  -0.1715  -0.1440  -0.1312  -0.0958
    -0.0836  -0.0544  -0.0152   0.0161   0.2144   0.2689   0.3374   0.3634
     0.4122   0.4802   0.4870   0.5056   0.5189   0.5363   0.5612   0.6241
     0.6572   0.6889   0.7289   0.7704   0.8404   0.8457   0.9094   0.9355
     0.9609   0.9932   1.0230   1.0293   1.0442   1.0641   1.0982   1.1112
     1.1348   1.1482   1.1682   1.1899   1.2033   1.2301   1.2414   1.2608
     1.2747   1.2985   1.3124   1.3222   1.3402   1.3467   1.3700   1.4129
     1.4210   1.4368   1.4480   1.4823   1.4922   1.5078   1.5396   1.5563
     1.5860   1.6082   1.6455   1.6972   1.7076   1.7282   1.8611   1.9158

          k =-0.1250-0.3703 0.3752 (310212 PWs)   bands (ev):

   -17.9574 -17.8939 -17.8893 -17.8591 -17.8465 -17.8349 -17.8237 -17.7951
   -15.7327 -15.7092 -15.6718 -15.6340 -15.6243 -15.6038 -15.5999 -15.5477
   -14.3388 -14.3297 -14.3016 -14.2980 -14.2920 -14.2912 -14.2864 -14.2795
   -14.2709 -14.2601 -14.2552 -14.2548 -14.2533 -14.2512 -14.2508 -14.2499
   -14.2418 -14.2417 -14.2410 -14.2407 -14.2380 -14.2342 -14.2264 -14.2249
   -14.2231 -14.2202 -14.2200 -14.2181 -14.2175 -14.2167 -14.2159 -14.2118
   -14.2013 -14.2009 -14.1990 -14.1924 -14.1917 -14.1897 -14.1859 -14.1792
    -9.7915  -9.7674  -9.7150  -9.6883  -9.6613  -9.6550  -9.6224  -9.5890
    -9.4783  -9.4334  -9.4043  -9.3842  -9.3488  -9.3320  -9.3142  -9.2810
    -9.2498  -9.1691  -9.1558  -9.1183  -9.0955  -9.0808  -9.0668  -9.0525
    -9.0381  -9.0208  -9.0008  -8.9867  -8.9772  -8.9381  -8.9074  -8.8736
    -7.8032  -7.7235  -7.6913  -7.6687  -7.6579  -7.6420  -7.6333  -7.6198
    -7.0980  -7.0837  -7.0726  -7.0287  -7.0223  -7.0009  -6.9916  -6.9230
    -5.6528  -5.5008  -5.4778  -5.4471  -5.3542  -5.3505  -5.3353  -5.3284
    -5.3013  -5.2915  -5.2650  -5.2461  -5.2130  -5.0534  -5.0147  -4.8602
    -3.8855  -3.8533  -3.8389  -3.8157  -3.7977  -3.7862  -3.7669  -3.7507
    -3.3302  -3.3055  -3.3010  -3.2574  -3.2570  -3.2491  -3.2297  -3.1910
    -0.8489  -0.7270  -0.6622  -0.5923  -0.4617  -0.4226  -0.3654  -0.3362
    -0.3231  -0.2863  -0.2465  -0.2325  -0.1374  -0.1218  -0.1149  -0.0969
    -0.0617  -0.0464  -0.0254   0.0194   0.1178   0.1799   0.2294   0.2546
     0.2912   0.3329   0.3592   0.4041   0.4398   0.5171   0.5313   0.5671
     0.6121   0.6565   0.7205   0.7313   0.7735   0.8222   0.8409   0.8600
     0.8823   0.9092   0.9626   0.9887   1.0093   1.0384   1.0660   1.0930
     1.1310   1.1505   1.1610   1.1918   1.2066   1.2259   1.2530   1.2716
     1.2980   1.3064   1.3208   1.3460   1.3512   1.3588   1.3821   1.3947
     1.4134   1.4283   1.4527   1.4722   1.4901   1.5012   1.5159   1.5518
     1.5712   1.5952   1.6215   1.6505   1.6683   1.6909   1.7385   1.8123

          k =-0.1250 0.3703-0.3752 (310212 PWs)   bands (ev):

   -17.9574 -17.8939 -17.8893 -17.8591 -17.8465 -17.8349 -17.8237 -17.7951
   -15.7327 -15.7092 -15.6718 -15.6340 -15.6243 -15.6038 -15.5999 -15.5477
   -14.3388 -14.3297 -14.3016 -14.2980 -14.2920 -14.2912 -14.2864 -14.2795
   -14.2709 -14.2601 -14.2552 -14.2548 -14.2533 -14.2512 -14.2508 -14.2499
   -14.2418 -14.2417 -14.2410 -14.2407 -14.2380 -14.2342 -14.2264 -14.2249
   -14.2231 -14.2202 -14.2200 -14.2181 -14.2175 -14.2167 -14.2159 -14.2118
   -14.2013 -14.2009 -14.1990 -14.1924 -14.1917 -14.1897 -14.1859 -14.1792
    -9.7915  -9.7681  -9.7156  -9.6889  -9.6598  -9.6542  -9.6216  -9.5911
    -9.4654  -9.4389  -9.4124  -9.3756  -9.3569  -9.3388  -9.3116  -9.2807
    -9.2482  -9.1653  -9.1536  -9.1198  -9.0973  -9.0788  -9.0649  -9.0566
    -9.0395  -9.0163  -9.0035  -8.9889  -8.9726  -8.9403  -8.9067  -8.8741
    -7.8031  -7.7234  -7.6914  -7.6685  -7.6575  -7.6425  -7.6334  -7.6201
    -7.0979  -7.0838  -7.0726  -7.0288  -7.0223  -7.0008  -6.9917  -6.9230
    -5.6523  -5.5050  -5.4748  -5.4477  -5.3550  -5.3487  -5.3359  -5.3290
    -5.3023  -5.2893  -5.2658  -5.2459  -5.2102  -5.0538  -5.0151  -4.8617
    -3.8854  -3.8531  -3.8391  -3.8155  -3.7979  -3.7863  -3.7670  -3.7507
    -3.3301  -3.3056  -3.3005  -3.2581  -3.2570  -3.2487  -3.2296  -3.1911
    -0.8411  -0.7178  -0.6606  -0.5855  -0.4707  -0.4257  -0.3781  -0.3409
    -0.3290  -0.2949  -0.2484  -0.2385  -0.1537  -0.1190  -0.1127  -0.0907
    -0.0577  -0.0508  -0.0276   0.0148   0.1211   0.1877   0.2457   0.2680
     0.3031   0.3355   0.3723   0.3927   0.4386   0.5074   0.5274   0.5623
     0.6219   0.6681   0.7219   0.7368   0.7795   0.7981   0.8451   0.8697
     0.8866   0.9062   0.9640   0.9887   1.0102   1.0228   1.0574   1.0911
     1.1145   1.1437   1.1842   1.1881   1.2176   1.2313   1.2527   1.2636
     1.2899   1.2960   1.3285   1.3410   1.3526   1.3656   1.3853   1.3945
     1.4169   1.4296   1.4549   1.4717   1.4845   1.5126   1.5195   1.5488
     1.5710   1.5895   1.6200   1.6566   1.6750   1.6955   1.7338   1.7889

          k = 0.1250-0.3703-0.3752 (310212 PWs)   bands (ev):

   -17.9574 -17.8939 -17.8893 -17.8591 -17.8465 -17.8349 -17.8237 -17.7951
   -15.7327 -15.7092 -15.6718 -15.6340 -15.6243 -15.6038 -15.5999 -15.5477
   -14.3388 -14.3297 -14.3016 -14.2980 -14.2920 -14.2912 -14.2864 -14.2795
   -14.2709 -14.2601 -14.2552 -14.2549 -14.2533 -14.2512 -14.2508 -14.2499
   -14.2418 -14.2417 -14.2410 -14.2407 -14.2380 -14.2342 -14.2264 -14.2249
   -14.2231 -14.2202 -14.2200 -14.2181 -14.2175 -14.2167 -14.2159 -14.2118
   -14.2013 -14.2009 -14.1990 -14.1924 -14.1917 -14.1897 -14.1859 -14.1792
    -9.7916  -9.7661  -9.7167  -9.6890  -9.6627  -9.6528  -9.6221  -9.5912
    -9.4737  -9.4267  -9.4103  -9.3849  -9.3534  -9.3327  -9.3032  -9.2864
    -9.2570  -9.1689  -9.1506  -9.1200  -9.0896  -9.0843  -9.0727  -9.0504
    -9.0383  -9.0186  -9.0012  -8.9848  -8.9768  -8.9394  -8.9075  -8.8738
    -7.8032  -7.7235  -7.6914  -7.6685  -7.6579  -7.6421  -7.6335  -7.6198
    -7.0979  -7.0838  -7.0726  -7.0288  -7.0223  -7.0008  -6.9917  -6.9230
    -5.6534  -5.5040  -5.4858  -5.4267  -5.3607  -5.3475  -5.3359  -5.3241
    -5.3133  -5.2925  -5.2755  -5.2357  -5.2070  -5.0515  -5.0178  -4.8612
    -3.8854  -3.8531  -3.8393  -3.8154  -3.7980  -3.7862  -3.7670  -3.7506
    -3.3303  -3.3060  -3.3005  -3.2579  -3.2570  -3.2486  -3.2296  -3.1909
    -0.8426  -0.7191  -0.6617  -0.5898  -0.4667  -0.4232  -0.3719  -0.3440
    -0.3034  -0.2901  -0.2625  -0.2399  -0.1617  -0.1342  -0.1158  -0.0904
    -0.0680  -0.0523  -0.0237   0.0175   0.1270   0.2029   0.2479   0.2854
     0.3091   0.3318   0.3519   0.3830   0.4407   0.5061   0.5327   0.5673
     0.6222   0.6636   0.7087   0.7437   0.7618   0.8118   0.8417   0.8547
     0.8922   0.9335   0.9431   0.9931   1.0121   1.0194   1.0681   1.1000
     1.1114   1.1444   1.1701   1.1902   1.2097   1.2222   1.2622   1.2694
     1.2911   1.3083   1.3178   1.3475   1.3559   1.3662   1.3868   1.3989
     1.4111   1.4211   1.4585   1.4728   1.4825   1.5099   1.5274   1.5537
     1.5694   1.5850   1.6215   1.6488   1.6693   1.6942   1.7352   1.7942

          k =-0.3750-0.1234 0.1251 (310174 PWs)   bands (ev):

   -17.9573 -17.8939 -17.8895 -17.8591 -17.8465 -17.8349 -17.8237 -17.7951
   -15.7288 -15.7130 -15.6718 -15.6339 -15.6245 -15.6036 -15.6000 -15.5477
   -14.3387 -14.3298 -14.3016 -14.2980 -14.2920 -14.2917 -14.2871 -14.2802
   -14.2710 -14.2600 -14.2551 -14.2541 -14.2533 -14.2508 -14.2504 -14.2491
   -14.2427 -14.2418 -14.2411 -14.2405 -14.2380 -14.2334 -14.2264 -14.2253
   -14.2231 -14.2208 -14.2200 -14.2181 -14.2169 -14.2167 -14.2159 -14.2118
   -14.2013 -14.2009 -14.1990 -14.1924 -14.1917 -14.1897 -14.1859 -14.1792
    -9.7873  -9.7482  -9.7306  -9.7087  -9.6820  -9.6361  -9.6000  -9.5898
    -9.5028  -9.4605  -9.3946  -9.3626  -9.3450  -9.3261  -9.2887  -9.2363
    -9.2222  -9.1887  -9.1663  -9.1577  -9.1271  -9.1107  -9.0890  -9.0535
    -9.0215  -9.0126  -8.9887  -8.9801  -8.9556  -8.9338  -8.9161  -8.8736
    -7.8013  -7.7290  -7.6918  -7.6711  -7.6589  -7.6401  -7.6329  -7.6188
    -7.0969  -7.0838  -7.0724  -7.0289  -7.0221  -7.0007  -6.9910  -6.9230
    -5.7601  -5.5800  -5.4580  -5.3754  -5.3638  -5.3487  -5.3337  -5.3184
    -5.3073  -5.2955  -5.2835  -5.2573  -5.1627  -5.1167  -4.8941  -4.7269
    -3.8887  -3.8531  -3.8403  -3.8147  -3.7945  -3.7890  -3.7660  -3.7509
    -3.3293  -3.3066  -3.3001  -3.2585  -3.2559  -3.2445  -3.2333  -3.1926
    -0.8589  -0.8062  -0.7633  -0.7424  -0.6964  -0.6547  -0.6362  -0.5845
    -0.4399  -0.3275  -0.2605  -0.2094  -0.1586  -0.1340  -0.1059  -0.0911
    -0.0647  -0.0358  -0.0206   0.0140   0.1259   0.2420   0.3347   0.3957
     0.4336   0.4490   0.4749   0.5117   0.5314   0.5578   0.5738   0.6178
     0.6376   0.7231   0.7814   0.8200   0.8483   0.8808   0.9110   0.9321
     0.9756   0.9874   1.0052   1.0202   1.0482   1.0686   1.0997   1.1171
     1.1325   1.1504   1.1673   1.1837   1.2086   1.2284   1.2382   1.2531
     1.2784   1.2852   1.3033   1.3220   1.3302   1.3607   1.3983   1.4128
     1.4298   1.4568   1.4674   1.4874   1.5017   1.5193   1.5479   1.5847
     1.6061   1.6245   1.6462   1.6592   1.7044   1.7321   1.8265   1.9145

          k =-0.3750 0.1234-0.1251 (310174 PWs)   bands (ev):

   -17.9573 -17.8939 -17.8895 -17.8591 -17.8465 -17.8349 -17.8237 -17.7951
   -15.7288 -15.7130 -15.6718 -15.6339 -15.6245 -15.6036 -15.6000 -15.5477
   -14.3387 -14.3298 -14.3016 -14.2980 -14.2920 -14.2917 -14.2871 -14.2802
   -14.2710 -14.2600 -14.2551 -14.2541 -14.2533 -14.2508 -14.2504 -14.2491
   -14.2427 -14.2418 -14.2411 -14.2405 -14.2380 -14.2334 -14.2264 -14.2253
   -14.2231 -14.2208 -14.2200 -14.2181 -14.2169 -14.2167 -14.2159 -14.2118
   -14.2013 -14.2009 -14.1990 -14.1924 -14.1917 -14.1897 -14.1859 -14.1792
    -9.7884  -9.7487  -9.7326  -9.7048  -9.6820  -9.6354  -9.5987  -9.5911
    -9.4984  -9.4618  -9.4016  -9.3700  -9.3486  -9.3162  -9.2809  -9.2340
    -9.2181  -9.2039  -9.1697  -9.1568  -9.1175  -9.1055  -9.0942  -9.0538
    -9.0294  -9.0093  -8.9889  -8.9749  -8.9573  -8.9352  -8.9139  -8.8750
    -7.8011  -7.7290  -7.6918  -7.6709  -7.6588  -7.6404  -7.6329  -7.6191
    -7.0968  -7.0839  -7.0723  -7.0290  -7.0221  -7.0007  -6.9910  -6.9230
    -5.7597  -5.5817  -5.4584  -5.3747  -5.3667  -5.3530  -5.3330  -5.3188
    -5.3038  -5.2961  -5.2723  -5.2575  -5.1664  -5.1189  -4.8934  -4.7280
    -3.8885  -3.8529  -3.8409  -3.8143  -3.7945  -3.7892  -3.7660  -3.7508
    -3.3292  -3.3065  -3.2998  -3.2583  -3.2566  -3.2444  -3.2331  -3.1927
    -0.8543  -0.7950  -0.7625  -0.7484  -0.6795  -0.6557  -0.6369  -0.5893
    -0.4625  -0.3379  -0.2706  -0.2021  -0.1664  -0.1427  -0.1166  -0.0910
    -0.0629  -0.0270  -0.0197   0.0097   0.1404   0.2635   0.3387   0.3951
     0.4391   0.4503   0.4764   0.5008   0.5366   0.5518   0.5769   0.6261
     0.6580   0.7135   0.7796   0.8176   0.8535   0.8785   0.9067   0.9267
     0.9687   0.9966   1.0083   1.0221   1.0470   1.0715   1.0783   1.1096
     1.1405   1.1611   1.1726   1.1907   1.1984   1.2185   1.2380   1.2535
     1.2642   1.2849   1.3056   1.3129   1.3437   1.3695   1.3857   1.4110
     1.4352   1.4422   1.4658   1.4871   1.5124   1.5354   1.5648   1.5806
     1.5938   1.6295   1.6547   1.6696   1.6880   1.7228   1.8397   1.8908

          k = 0.3750-0.1234-0.1251 (310174 PWs)   bands (ev):

   -17.9573 -17.8939 -17.8895 -17.8591 -17.8465 -17.8349 -17.8237 -17.7951
   -15.7288 -15.7130 -15.6718 -15.6339 -15.6245 -15.6036 -15.6000 -15.5477
   -14.3387 -14.3298 -14.3016 -14.2980 -14.2920 -14.2917 -14.2871 -14.2802
   -14.2710 -14.2600 -14.2551 -14.2541 -14.2533 -14.2508 -14.2504 -14.2491
   -14.2427 -14.2418 -14.2411 -14.2405 -14.2380 -14.2334 -14.2264 -14.2253
   -14.2231 -14.2208 -14.2200 -14.2181 -14.2169 -14.2167 -14.2159 -14.2118
   -14.2013 -14.2009 -14.1990 -14.1924 -14.1917 -14.1897 -14.1859 -14.1792
    -9.7871  -9.7465  -9.7339  -9.7067  -9.6833  -9.6356  -9.5995  -9.5914
    -9.4989  -9.4598  -9.3956  -9.3693  -9.3507  -9.3124  -9.2822  -9.2548
    -9.2088  -9.1980  -9.1704  -9.1547  -9.1190  -9.1053  -9.0953  -9.0593
    -9.0233  -9.0068  -8.9887  -8.9769  -8.9602  -8.9308  -8.9170  -8.8743
    -7.8013  -7.7291  -7.6918  -7.6709  -7.6590  -7.6402  -7.6330  -7.6188
    -7.0968  -7.0838  -7.0724  -7.0290  -7.0222  -7.0007  -6.9911  -6.9230
    -5.7601  -5.5813  -5.4587  -5.3753  -5.3673  -5.3478  -5.3370  -5.3136
    -5.3050  -5.2955  -5.2724  -5.2633  -5.1645  -5.1196  -4.8928  -4.7280
    -3.8886  -3.8528  -3.8411  -3.8141  -3.7949  -3.7889  -3.7660  -3.7508
    -3.3293  -3.3068  -3.2999  -3.2585  -3.2562  -3.2442  -3.2331  -3.1925
    -0.8601  -0.7914  -0.7627  -0.7487  -0.6776  -0.6583  -0.6405  -0.5813
    -0.4612  -0.3371  -0.2702  -0.2053  -0.1684  -0.1371  -0.1161  -0.0900
    -0.0680  -0.0297  -0.0165   0.0104   0.1379   0.2646   0.3378   0.3991
     0.4357   0.4543   0.4763   0.4995   0.5367   0.5530   0.5892   0.6059
     0.6482   0.7064   0.8017   0.8220   0.8613   0.8829   0.9078   0.9380
     0.9514   0.9895   1.0032   1.0101   1.0482   1.0532   1.1008   1.1242
     1.1329   1.1573   1.1716   1.1785   1.2008   1.2186   1.2390   1.2487
     1.2797   1.2878   1.3033   1.3318   1.3382   1.3596   1.3892   1.4022
     1.4388   1.4532   1.4662   1.4885   1.5123   1.5337   1.5536   1.5766
     1.5953   1.6322   1.6441   1.6691   1.6974   1.7219   1.8370   1.8953

          k =-0.3750-0.1234 0.3752 (310218 PWs)   bands (ev):

   -17.9573 -17.8939 -17.8895 -17.8591 -17.8465 -17.8349 -17.8237 -17.7951
   -15.7288 -15.7130 -15.6718 -15.6339 -15.6244 -15.6036 -15.6001 -15.5477
   -14.3386 -14.3298 -14.3016 -14.2980 -14.2920 -14.2916 -14.2868 -14.2799
   -14.2707 -14.2599 -14.2551 -14.2546 -14.2533 -14.2508 -14.2501 -14.2494
   -14.2428 -14.2418 -14.2410 -14.2407 -14.2380 -14.2336 -14.2264 -14.2255
   -14.2231 -14.2210 -14.2200 -14.2181 -14.2169 -14.2167 -14.2159 -14.2118
   -14.2013 -14.2009 -14.1990 -14.1924 -14.1917 -14.1897 -14.1859 -14.1792
    -9.7715  -9.7412  -9.7196  -9.7044  -9.6820  -9.6610  -9.6306  -9.5953
    -9.4877  -9.4331  -9.4131  -9.3961  -9.3360  -9.3148  -9.2994  -9.2660
    -9.2234  -9.1976  -9.1481  -9.1241  -9.1158  -9.0913  -9.0735  -9.0447
    -9.0357  -9.0161  -8.9960  -8.9776  -8.9635  -8.9355  -8.9226  -8.8787
    -7.8011  -7.7291  -7.6908  -7.6716  -7.6573  -7.6409  -7.6347  -7.6195
    -7.0969  -7.0837  -7.0723  -7.0291  -7.0220  -7.0007  -6.9911  -6.9229
    -5.6496  -5.4936  -5.4624  -5.4478  -5.3754  -5.3527  -5.3403  -5.3196
    -5.3176  -5.2928  -5.2800  -5.2555  -5.1859  -5.0420  -5.0101  -4.8574
    -3.8877  -3.8523  -3.8390  -3.8171  -3.7939  -3.7887  -3.7677  -3.7510
    -3.3293  -3.3064  -3.3000  -3.2581  -3.2559  -3.2444  -3.2334  -3.1924
    -0.7867  -0.7554  -0.6964  -0.6607  -0.5291  -0.4381  -0.4074  -0.3655
    -0.3128  -0.2730  -0.2298  -0.1734  -0.1604  -0.1294  -0.1023  -0.0850
    -0.0684  -0.0387  -0.0193   0.0248   0.0928   0.1724   0.2265   0.2698
     0.2895   0.3395   0.3748   0.4214   0.4613   0.4748   0.5109   0.5407
     0.6460   0.7005   0.7411   0.7710   0.8054   0.8326   0.8434   0.8809
     0.9271   0.9438   0.9728   0.9800   1.0117   1.0503   1.0627   1.0858
     1.1148   1.1398   1.1652   1.1856   1.2094   1.2267   1.2436   1.2632
     1.2888   1.3065   1.3226   1.3294   1.3469   1.3626   1.3845   1.3946
     1.4245   1.4352   1.4516   1.4679   1.4940   1.5088   1.5309   1.5520
     1.5647   1.6067   1.6165   1.6575   1.6800   1.7154   1.7404   1.7847

          k =-0.3750 0.1234-0.3752 (310218 PWs)   bands (ev):

   -17.9573 -17.8939 -17.8895 -17.8591 -17.8465 -17.8349 -17.8237 -17.7951
   -15.7288 -15.7130 -15.6718 -15.6339 -15.6244 -15.6036 -15.6001 -15.5477
   -14.3386 -14.3298 -14.3016 -14.2980 -14.2920 -14.2916 -14.2868 -14.2799
   -14.2707 -14.2599 -14.2551 -14.2546 -14.2533 -14.2508 -14.2501 -14.2494
   -14.2428 -14.2418 -14.2410 -14.2407 -14.2380 -14.2336 -14.2264 -14.2255
   -14.2231 -14.2210 -14.2200 -14.2181 -14.2169 -14.2167 -14.2159 -14.2118
   -14.2013 -14.2009 -14.1990 -14.1924 -14.1917 -14.1897 -14.1859 -14.1792
    -9.7721  -9.7429  -9.7192  -9.7023  -9.6834  -9.6601  -9.6288  -9.5965
    -9.4716  -9.4511  -9.4207  -9.3875  -9.3390  -9.3159  -9.2964  -9.2618
    -9.2242  -9.2029  -9.1492  -9.1232  -9.1044  -9.0909  -9.0805  -9.0471
    -9.0343  -9.0216  -8.9882  -8.9787  -8.9587  -8.9461  -8.9163  -8.8802
    -7.8010  -7.7291  -7.6909  -7.6715  -7.6569  -7.6415  -7.6346  -7.6198
    -7.0968  -7.0838  -7.0722  -7.0291  -7.0220  -7.0007  -6.9911  -6.9230
    -5.6483  -5.4953  -5.4684  -5.4475  -5.3726  -5.3569  -5.3340  -5.3233
    -5.3046  -5.2947  -5.2793  -5.2616  -5.1848  -5.0420  -5.0113  -4.8584
    -3.8875  -3.8522  -3.8392  -3.8168  -3.7944  -3.7885  -3.7677  -3.7510
    -3.3291  -3.3064  -3.2996  -3.2581  -3.2566  -3.2442  -3.2332  -3.1925
    -0.7760  -0.7491  -0.6910  -0.6619  -0.5155  -0.4649  -0.4113  -0.3616
    -0.3298  -0.2710  -0.2549  -0.1745  -0.1605  -0.1364  -0.1021  -0.0972
    -0.0551  -0.0407  -0.0201   0.0121   0.1121   0.2038   0.2354   0.2679
     0.3191   0.3245   0.3845   0.4235   0.4386   0.4725   0.5118   0.5427
     0.6524   0.7069   0.7414   0.7694   0.8132   0.8179   0.8480   0.8852
     0.9362   0.9478   0.9593   0.9914   1.0077   1.0385   1.0485   1.0947
     1.1125   1.1348   1.1508   1.1972   1.2079   1.2398   1.2451   1.2565
     1.2864   1.2918   1.3082   1.3222   1.3445   1.3610   1.3816   1.4041
[...]
    -0.0624  -0.0427  -0.0283   0.0191   0.1213   0.1694   0.1785   0.2405
     0.2564   0.2818   0.3021   0.3247   0.3565   0.3916   0.4216   0.4535
     0.6644   0.6915   0.7138   0.7468   0.7785   0.8017   0.8186   0.8463
     0.8893   0.8949   0.9179   0.9437   0.9637   0.9783   0.9899   1.0219
     1.0686   1.0773   1.0948   1.1123   1.1278   1.1441   1.1652   1.1871
     1.2769   1.3015   1.3318   1.3519   1.3644   1.3745   1.3886   1.4053
     1.4163   1.4412   1.4498   1.4670   1.4883   1.5016   1.5395   1.5443
     1.5602   1.5833   1.5887   1.6039   1.6272   1.6412   1.6625   1.6881

          k = 0.3750-0.3703-0.3752 (310186 PWs)   bands (ev):

   -17.9578 -17.8938 -17.8895 -17.8591 -17.8462 -17.8348 -17.8233 -17.7950
   -15.7293 -15.7137 -15.6717 -15.6340 -15.6241 -15.6038 -15.5996 -15.5476
   -14.3379 -14.3289 -14.3009 -14.2974 -14.2916 -14.2912 -14.2866 -14.2795
   -14.2707 -14.2600 -14.2552 -14.2547 -14.2534 -14.2508 -14.2501 -14.2498
   -14.2428 -14.2417 -14.2411 -14.2406 -14.2381 -14.2335 -14.2264 -14.2248
   -14.2231 -14.2204 -14.2199 -14.2184 -14.2181 -14.2166 -14.2159 -14.2118
   -14.2015 -14.2008 -14.1989 -14.1926 -14.1915 -14.1895 -14.1857 -14.1794
    -9.7688  -9.7410  -9.7151  -9.7066  -9.6884  -9.6605  -9.6270  -9.5942
    -9.4674  -9.4278  -9.4057  -9.3976  -9.3757  -9.3246  -9.3165  -9.2832
    -9.2347  -9.1657  -9.1480  -9.1208  -9.0986  -9.0811  -9.0761  -9.0559
    -9.0239  -9.0086  -8.9924  -8.9709  -8.9550  -8.9423  -8.9288  -8.8929
    -7.8009  -7.7285  -7.6910  -7.6687  -7.6572  -7.6438  -7.6331  -7.6203
    -7.0974  -7.0838  -7.0729  -7.0284  -7.0220  -7.0014  -6.9908  -6.9228
    -5.5425  -5.4640  -5.4097  -5.3787  -5.3667  -5.3472  -5.3380  -5.3165
    -5.3079  -5.2984  -5.2768  -5.2665  -5.1907  -5.1533  -5.1400  -4.9963
    -3.8863  -3.8526  -3.8390  -3.8147  -3.7954  -3.7888  -3.7671  -3.7512
    -3.3297  -3.3064  -3.2996  -3.2583  -3.2554  -3.2454  -3.2328  -3.1926
    -0.5532  -0.4847  -0.4494  -0.4028  -0.3936  -0.3477  -0.3285  -0.3131
    -0.2972  -0.2645  -0.2159  -0.1964  -0.1703  -0.1420  -0.1144  -0.0902
    -0.0740  -0.0386  -0.0232   0.0288   0.1143   0.1546   0.1948   0.2209
     0.2704   0.2921   0.3096   0.3337   0.3635   0.3829   0.4018   0.4594
     0.6605   0.6889   0.7141   0.7473   0.7703   0.8084   0.8152   0.8641
     0.8763   0.8949   0.9134   0.9480   0.9613   0.9770   0.9955   1.0166
     1.0668   1.0776   1.0899   1.1198   1.1252   1.1489   1.1597   1.1998
     1.2765   1.3007   1.3352   1.3470   1.3667   1.3735   1.3864   1.4059
     1.4239   1.4303   1.4535   1.4711   1.4964   1.5076   1.5342   1.5455
     1.5516   1.5684   1.5885   1.6071   1.6273   1.6398   1.6697   1.6868

     highest occupied level (ev):     2.1099

!    total energy              =  -16707.46993206 Ry
     Harris-Foulkes estimate   =  -16707.46993206 Ry
     estimated scf accuracy    <          3.1E-10 Ry

     total all-electron energy =   -678114.529617 Ry

     The total energy is the sum of the following terms:

     one-electron contribution =    -948.89273899 Ry
     hartree contribution      =     673.99993037 Ry
     xc contribution           =    -795.80896058 Ry
     ewald contribution        =   -1218.13830508 Ry
     DFT-D3 Dispersion         =      -0.64548045 Ry
     one-center paw contrib.   =  -14417.98437733 Ry

     convergence has been achieved in   7 iterations

     Forces acting on atoms (cartesian axes, Ry/au):

     atom    1 type  1   force =    -0.00015885   -0.00003708    0.00011629
     atom    2 type  1   force =    -0.00018646   -0.00003107   -0.00005111
     atom    3 type  1   force =    -0.00012874   -0.00006559   -0.00001280
     atom    4 type  1   force =    -0.00000080    0.00007332    0.00012540
     atom    5 type  1   force =    -0.00004954   -0.00008232   -0.00001547
     atom    6 type  1   force =     0.00011333    0.00010443   -0.00004585
     atom    7 type  1   force =     0.00000985    0.00010141    0.00001531
     atom    8 type  1   force =     0.00013808    0.00005681    0.00003145
     atom    9 type  2   force =     0.00000197    0.00010354   -0.00020470
     atom   10 type  2   force =    -0.00004949   -0.00004873   -0.00008843
     atom   11 type  2   force =     0.00002077    0.00006016   -0.00015064
     atom   12 type  2   force =    -0.00004500   -0.00026649    0.00010323
     atom   13 type  2   force =     0.00002837    0.00012368   -0.00005181
     atom   14 type  2   force =    -0.00008605    0.00000138   -0.00000424
     atom   15 type  2   force =     0.00012015   -0.00017360   -0.00011795
     atom   16 type  2   force =    -0.00009843    0.00002078    0.00004991
     atom   17 type  2   force =     0.00008852    0.00006105   -0.00013360
     atom   18 type  2   force =     0.00012186    0.00012863   -0.00002060
     atom   19 type  2   force =    -0.00010600   -0.00001371    0.00014566
     atom   20 type  2   force =    -0.00015344   -0.00005917    0.00004787
     atom   21 type  2   force =    -0.00012595    0.00009753    0.00004464
     atom   22 type  2   force =     0.00030857    0.00001439    0.00010671
     atom   23 type  2   force =    -0.00019775    0.00001286   -0.00007368
     atom   24 type  2   force =    -0.00001587   -0.00004225   -0.00025722
     atom   25 type  2   force =    -0.00001279    0.00007627    0.00005717
     atom   26 type  2   force =    -0.00000370    0.00026597   -0.00006715
     atom   27 type  2   force =    -0.00007187    0.00001068    0.00003560
     atom   28 type  2   force =     0.00009460    0.00001599   -0.00004100
     atom   29 type  2   force =    -0.00004868   -0.00001913   -0.00004354
     atom   30 type  2   force =    -0.00005778   -0.00002090    0.00001210
     atom   31 type  2   force =    -0.00006452   -0.00008790    0.00016948
     atom   32 type  2   force =    -0.00000150    0.00016517   -0.00003932
     atom   33 type  3   force =     0.00017417    0.00008948    0.00019515
     atom   34 type  3   force =     0.00015712   -0.00018568   -0.00014716
     atom   35 type  3   force =    -0.00010466   -0.00010539    0.00020247
     atom   36 type  3   force =    -0.00014080    0.00001877   -0.00014147
     atom   37 type  3   force =    -0.00005143   -0.00012179    0.00000378
     atom   38 type  3   force =     0.00020016    0.00007375    0.00004489
     atom   39 type  3   force =    -0.00008620    0.00000510    0.00020531
     atom   40 type  3   force =    -0.00005954   -0.00010928    0.00010779
     atom   41 type  4   force =    -0.00007525   -0.00015974   -0.00018127
     atom   42 type  4   force =     0.00002031    0.00027421    0.00014177
     atom   43 type  4   force =     0.00028967   -0.00012855   -0.00035988
     atom   44 type  4   force =     0.00001730   -0.00001520    0.00000260
     atom   45 type  4   force =     0.00008793    0.00003271   -0.00025545
     atom   46 type  4   force =     0.00001040   -0.00050449    0.00032143
     atom   47 type  4   force =    -0.00019752    0.00005365   -0.00000080
     atom   48 type  4   force =     0.00011392   -0.00004919   -0.00003217
     atom   49 type  4   force =    -0.00018407    0.00052529   -0.00004669
     atom   50 type  4   force =    -0.00016384   -0.00004145   -0.00002565
     atom   51 type  4   force =     0.00009319    0.00069793    0.00065557
     atom   52 type  4   force =    -0.00007401    0.00003120   -0.00000394
     atom   53 type  4   force =    -0.00038369   -0.00007179    0.00023363
     atom   54 type  4   force =    -0.00022730    0.00005617   -0.00015102
     atom   55 type  4   force =     0.00028909    0.00002108    0.00007680
     atom   56 type  4   force =     0.00006202    0.00010770   -0.00001932
     atom   57 type  5   force =    -0.00009736   -0.00008352   -0.00006147
     atom   58 type  5   force =     0.00004448    0.00001864    0.00001680
     atom   59 type  5   force =    -0.00004068   -0.00049746    0.00042691
     atom   60 type  5   force =     0.00001696   -0.00001889    0.00011119
     atom   61 type  5   force =    -0.00007541   -0.00011720   -0.00002170
     atom   62 type  5   force =     0.00002449   -0.00027855    0.00007884
     atom   63 type  5   force =    -0.00010928    0.00004216    0.00001029
     atom   64 type  5   force =     0.00005121    0.00010018   -0.00001336
     atom   65 type  5   force =     0.00014663    0.00000043    0.00008480
     atom   66 type  5   force =     0.00000329   -0.00001061   -0.00013395
     atom   67 type  5   force =     0.00014854    0.00029263   -0.00027663
     atom   68 type  5   force =    -0.00001299   -0.00009639   -0.00007984
     atom   69 type  5   force =     0.00006880   -0.00023244   -0.00023795
     atom   70 type  5   force =     0.00024810    0.00004329    0.00013964
     atom   71 type  5   force =    -0.00001644    0.00003074   -0.00008964
     atom   72 type  5   force =    -0.00000008    0.00010259   -0.00011517
     atom   73 type  5   force =     0.00005011   -0.00012604    0.00009084
     atom   74 type  5   force =     0.00006860    0.00011992   -0.00003686
     atom   75 type  5   force =    -0.00008351   -0.00014507   -0.00010733
     atom   76 type  5   force =    -0.00001751   -0.00008137    0.00002727
     atom   77 type  5   force =     0.00011217   -0.00019566   -0.00051015
     atom   78 type  5   force =     0.00026959   -0.00012865    0.00036448
     atom   79 type  5   force =    -0.00001957   -0.00013745   -0.00017155
     atom   80 type  5   force =    -0.00006468    0.00012401   -0.00008871
     atom   81 type  5   force =     0.00024842    0.00005570   -0.00011917
     atom   82 type  5   force =    -0.00012528   -0.00004795   -0.00000978
     atom   83 type  5   force =     0.00022906    0.00011146   -0.00041641
     atom   84 type  5   force =    -0.00003712   -0.00005401   -0.00009764
     atom   85 type  5   force =    -0.00007574   -0.00020672    0.00030545
     atom   86 type  5   force =    -0.00003648   -0.00015961   -0.00022220
     atom   87 type  5   force =     0.00015889    0.00024914    0.00009766
     atom   88 type  5   force =    -0.00003622    0.00004297    0.00006496
     atom   89 type  5   force =    -0.00007039    0.00019911   -0.00017161
     atom   90 type  5   force =    -0.00005952   -0.00011122    0.00003125
     atom   91 type  5   force =    -0.00014485   -0.00012826    0.00040159
     atom   92 type  5   force =     0.00002584    0.00006169   -0.00017545
     atom   93 type  5   force =    -0.00003992   -0.00007490    0.00059418
     atom   94 type  5   force =    -0.00010996   -0.00002186   -0.00033994
     atom   95 type  5   force =     0.00017107    0.00023869    0.00011322
     atom   96 type  5   force =     0.00003692    0.00007993    0.00006912

     Total force =     0.001839     Total SCF correction =     0.000020


     Computing stress (Cartesian axis) and pressure

          total   stress  (Ry/bohr**3)                   (kbar)     P=    0.00
  -0.00000011   0.00000034  -0.00000620         -0.02      0.05     -0.91
   0.00000034   0.00000009   0.00000078          0.05      0.01      0.11
  -0.00000620   0.00000078   0.00000003         -0.91      0.11      0.00


     number of scf cycles    =   3
     number of bfgs steps    =   2

     enthalpy old            =  -16707.4699282971 Ry
     enthalpy new            =  -16707.4699320643 Ry

     CASE: enthalpy_new < enthalpy_old

     new trust radius        =       0.0010033675 bohr
     new conv_thr            =       0.0000000010 Ry

     new unit-cell volume =  13973.25869 a.u.^3 (  2070.62328 Ang^3 )
     density =      4.06576 g/cm^3

CELL_PARAMETERS (angstrom)
  12.694358167   0.000000000   0.000000000
   0.000000000  12.854840801   0.000000000
   0.000000000   0.000000000  12.688890284

ATOMIC_POSITIONS (crystal)
Pb      -0.012467565  -0.023871364   0.007936722    1   0   1
Pb       0.486092434  -0.018666928   0.002261476    1   0   0
Pb      -0.014256292   0.481819570   0.009968563    0   0   1
Pb       0.023197996  -0.018371430   0.512061181    0   0   0
Pb       0.487182601   0.482649918  -0.003781880    0   0   0
Pb       0.020749614   0.477997880   0.506147789    0   1   0
Pb       0.525694008  -0.017784955   0.503012555    0   0   0
Pb       0.520334217   0.485398979   0.500179968    1   0   0
I        0.236802729  -0.009294927  -0.041326498    0   1   1
I        0.737084509  -0.004452818   0.043273878    0   0   0
I        0.235457186   0.487906753   0.059022947    0   0   1
I        0.271773942  -0.030516867   0.526449097    0   1   1
I        0.736237747   0.489895586  -0.052827831    0   1   0
I        0.272098928   0.473836031   0.460636116    0   0   0
I        0.771873415  -0.017458245   0.480071800
I        0.772534567   0.461717125   0.539769392    0   0   0
I       -0.029047600   0.233140193   0.007992922    0   0   1
I        0.470539770   0.232279676   0.008575002    1   1   0
I       -0.030946540   0.732599426   0.002479690    1   0   1
I        0.042632379   0.229807834   0.503633040    1   0   0
I        0.469928310   0.732680150  -0.000920343    1   1   0
I        0.025089762   0.728727015   0.511762370    1   0   1
I        0.532348978   0.231116806   0.503928954    1   0   0
I        0.541835931   0.731364839   0.504278444    0   0   1
I        0.035546498  -0.032932408   0.258307605    0   0   0
I        0.469570489  -0.021351450   0.253977610    0   1   0
I       -0.051032907   0.483811935   0.258039371    0   0   0
I       -0.041398965  -0.018546449   0.758604983    0   0   0
I        0.552027250   0.482960086   0.247070295    0   0   0
I        0.050714830   0.478055017   0.758344638    0   0   0
I        0.533051657  -0.024176564   0.755370105    0   0   1
I        0.456543875   0.469146540   0.748223225    0   1   0
C        0.236177740   0.251225198   0.250948631    0   0   1
C        0.763228009   0.254534248   0.276980211    0   0   1
C        0.245900127   0.734159623   0.294324976    1   0   0
C        0.258378173   0.251256212   0.733671263    0   1   0
C        0.750757347   0.792347063   0.252247311    0   1   1
C        0.254249669   0.772166442   0.747343053    1   1   0
C        0.733510889   0.252597291   0.755970899
C        0.758887341   0.751128083   0.735363183    0   0   1
N        0.203735629   0.196996243   0.169499276    1   0   1
N        0.692849795   0.235546925   0.203479751    0   0   1
N        0.163923809   0.679157436   0.264914160    0   0   0
N        0.187415026   0.234068090   0.807049026    0   1   1
N        0.664788737   0.743137653   0.223226716
N        0.176331391   0.731414795   0.801560783    1   0   0
N        0.704713849   0.202410932   0.841397699    0   0   0
N        0.688516629   0.743724653   0.810931909    1   1   0
N        0.314266071   0.224692202   0.313327442    1   0   0
N        0.847346989   0.197692967   0.294726768    0   1   1
N        0.341928087   0.720470469   0.258317188    0   0   0
N        0.339370202   0.190722961   0.714190826    1   0   1
N        0.840190901   0.748241940   0.278452030    0   1   1
N        0.328526724   0.718368901   0.700310586    0   1   1
N        0.810495477   0.224144384   0.693127613    0   1   0
N        0.836228717   0.684852550   0.720723122    1   0   0
H        0.195810724   0.324281304   0.268253085    0   0   0
H        0.750860318   0.322664002   0.327027939    0   1   1
H        0.233924590   0.795480105   0.352897894    0   0   0
H        0.249322137   0.321086061   0.685429375    0   1   0
H        0.747613249   0.877099216   0.254815127    0   1   0
H        0.257397599   0.856757144   0.740464864    0   0   0
H        0.690662830   0.323489787   0.735544116    0   0   0
H        0.752850032   0.816904584   0.681105778    1   0   0
H        0.237548110   0.128476053   0.146988498    0   1   0
H        0.698687463   0.173250019   0.153332600
H        0.169841947   0.619477147   0.211473015
H        0.190726715   0.170645578   0.855918916    0   0   0
H        0.657149629   0.663704824   0.221844539    0   0   1
H        0.163317103   0.652853588   0.806032374
H        0.740623710   0.135858946   0.866784734    0   0   0
H        0.689184621   0.683736127   0.864120584    0   0   0
H        0.141570646   0.222558443   0.124761705    0   0   0
H        0.630530224   0.285074085   0.194982025    1   1   0
H        0.094163874   0.689990231   0.302952161    0   1   1
H        0.127030312   0.285792562   0.816160862    0   0   0
H        0.600417450   0.785706823   0.202431222    0   1   1
H        0.122354784   0.777859364   0.837866456
H        0.642839569   0.228654196   0.885852671    1   0   0
H        0.629733117   0.797800294   0.815390942    0   0   0
H        0.356973972   0.157876969   0.303123894
H        0.865320530   0.132600986   0.252352406    1   1   0
H        0.359697619   0.666457720   0.202185375    0   1   0
H        0.354024409   0.124135288   0.755406812    0   0   1
H        0.853373950   0.669528831   0.275508183    1   0   1
H        0.336076872   0.639282786   0.707599066    0   0   1
H        0.854682148   0.158525461   0.706020173    1   1   0
H        0.846069700   0.620760937   0.767119980    0   0   0
H        0.333539847   0.271930274   0.375075646    0   1   1
H        0.898291930   0.217092649   0.354254160    0   0   0
H        0.399589162   0.771098561   0.280664889    0   0   1
H        0.391919756   0.209918915   0.655948148    0   0   0
H        0.902329032   0.795315919   0.297020332
H        0.385180721   0.755090172   0.656855837    1   0   1
H        0.826529820   0.268764995   0.628483798
H        0.888307999   0.696053994   0.660087993    0   0   0



     Writing output data file FAPbI83_vcrelax.save/
     NEW-OLD atomic charge density approx. for the potential

     total cpu time spent up to now is   124184.5 secs

     Self-consistent Calculation

     iteration #  1     ecut=   120.00 Ry     beta= 0.70
     Davidson diagonalization with overlap
     ethr =  1.00E-06,  avg # of iterations =  2.0

     Threshold (ethr) on eigenvalues was too large:
     Diagonalizing with lowered threshold

     Davidson diagonalization with overlap
     ethr =  2.55E-10,  avg # of iterations =  4.0

     total cpu time spent up to now is   137754.7 secs

     total energy              =  -16707.46993697 Ry
     Harris-Foulkes estimate   =  -16707.46993437 Ry
     estimated scf accuracy    <       0.00000052 Ry

     iteration #  2     ecut=   120.00 Ry     beta= 0.70
     Davidson diagonalization with overlap
     ethr =  1.21E-10,  avg # of iterations =  3.0

     total cpu time spent up to now is   141881.3 secs

     total energy              =  -16707.46993713 Ry
     Harris-Foulkes estimate   =  -16707.46993712 Ry
     estimated scf accuracy    <       0.00000011 Ry

     iteration #  3     ecut=   120.00 Ry     beta= 0.70
     Davidson diagonalization with overlap
     ethr =  2.54E-11,  avg # of iterations =  4.0

     total cpu time spent up to now is   145874.2 secs

     total energy              =  -16707.46993715 Ry
     Harris-Foulkes estimate   =  -16707.46993716 Ry
     estimated scf accuracy    <       0.00000006 Ry

     iteration #  4     ecut=   120.00 Ry     beta= 0.70
     Davidson diagonalization with overlap
     ethr =  1.45E-11,  avg # of iterations =  3.0

     total cpu time spent up to now is   149129.5 secs

     total energy              =  -16707.46993717 Ry
     Harris-Foulkes estimate   =  -16707.46993716 Ry
     estimated scf accuracy    <       0.00000002 Ry

     iteration #  5     ecut=   120.00 Ry     beta= 0.70
     Davidson diagonalization with overlap
     ethr =  5.53E-12,  avg # of iterations =  2.9

     total cpu time spent up to now is   152563.5 secs

     total energy              =  -16707.46993717 Ry
     Harris-Foulkes estimate   =  -16707.46993717 Ry
     estimated scf accuracy    <          7.6E-09 Ry

     iteration #  6     ecut=   120.00 Ry     beta= 0.70
     Davidson diagonalization with overlap
